# LAMMPS data file written by Ovito 3.5.4
0 atoms
1 atom types
0.0 300.8124 xlo xhi
0.0 300.8124 ylo yhi
0.0 122.0688 zlo zhi

Atoms  # atomic

