# LAMMPS data file written by Ovito 3.5.4
69218 atoms
2 atom types
0.0 300.8124 xlo xhi
0.0 300.8124 ylo yhi
0.0 122.0688 zlo zhi

Atoms  # atomic

570737 2 201.6315 201.6315 1.0899
570741 1 200.5416 200.5416 0.0
570749 1 200.5416 200.5416 4.3596
570739 2 203.8113 201.6315 3.2697
570743 1 202.7214 200.5416 2.1798
572825 2 205.9911 201.6315 1.0899
572829 1 204.9012 200.5416 0.0
572837 1 204.9012 200.5416 4.3596
572827 2 208.1709 201.6315 3.2697
572831 1 207.081 200.5416 2.1798
574924 2 210.3507 201.6315 1.0899
574928 1 209.2608 200.5416 0.0
574930 1 211.4406 200.5416 2.1798
574936 1 209.2608 200.5416 4.3596
574926 2 212.5305 201.6315 3.2697
576999 2 214.7103 201.6315 1.0899
577003 1 213.6204 200.5416 0.0
577005 1 215.8002 200.5416 2.1798
577011 1 213.6204 200.5416 4.3596
577001 2 216.8901 201.6315 3.2697
579088 2 219.0699 201.6315 1.0899
579092 1 217.98 200.5416 0.0
579094 1 220.1598 200.5416 2.1798
579100 1 217.98 200.5416 4.3596
579090 2 221.2497 201.6315 3.2697
581178 2 223.4295 201.6315 1.0899
581182 1 222.3396 200.5416 0.0
581184 1 224.5194 200.5416 2.1798
581190 1 222.3396 200.5416 4.3596
581180 2 225.6093 201.6315 3.2697
583263 2 227.7891 201.6315 1.0899
583265 2 229.9689 201.6315 3.2697
583267 1 226.6992 200.5416 0.0
583269 1 228.879 200.5416 2.1798
583275 1 226.6992 200.5416 4.3596
585359 2 232.1487 201.6315 1.0899
585361 2 234.3285 201.6315 3.2697
585363 1 231.0588 200.5416 0.0
585365 1 233.2386 200.5416 2.1798
585371 1 231.0588 200.5416 4.3596
587444 2 236.5083 201.6315 1.0899
587446 2 238.6881 201.6315 3.2697
587448 1 235.4184 200.5416 0.0
587450 1 237.5982 200.5416 2.1798
587456 1 235.4184 200.5416 4.3596
589524 2 240.8679 201.6315 1.0899
589526 2 243.0477 201.6315 3.2697
589528 1 239.778 200.5416 0.0
589530 1 241.9578 200.5416 2.1798
589536 1 239.778 200.5416 4.3596
591618 1 244.1376 200.5416 0.0
591626 1 244.1376 200.5416 4.3596
591614 2 245.2275 201.6315 1.0899
591616 2 247.4073 201.6315 3.2697
591620 1 246.3174 200.5416 2.1798
593716 1 248.4972 200.5416 0.0
593724 1 248.4972 200.5416 4.3596
593712 2 249.5871 201.6315 1.0899
593714 2 251.7669 201.6315 3.2697
593718 1 250.677 200.5416 2.1798
595799 1 252.8568 200.5416 0.0
595807 1 252.8568 200.5416 4.3596
595795 2 253.9467 201.6315 1.0899
595797 2 256.1265 201.6315 3.2697
595801 1 255.0366 200.5416 2.1798
597873 2 258.3063 201.6315 1.0899
597877 1 257.2164 200.5416 0.0
597885 1 257.2164 200.5416 4.3596
597875 2 260.4861 201.6315 3.2697
597879 1 259.3962 200.5416 2.1798
599962 2 262.6659 201.6315 1.0899
599966 1 261.576 200.5416 0.0
599974 1 261.576 200.5416 4.3596
599964 2 264.8457 201.6315 3.2697
599968 1 263.7558 200.5416 2.1798
602053 2 267.0255 201.6315 1.0899
602057 1 265.9356 200.5416 0.0
602065 1 265.9356 200.5416 4.3596
602055 2 269.2053 201.6315 3.2697
602059 1 268.1154 200.5416 2.1798
604137 2 271.3851 201.6315 1.0899
604141 1 270.2952 200.5416 0.0
604143 1 272.475 200.5416 2.1798
604149 1 270.2952 200.5416 4.3596
604139 2 273.5649 201.6315 3.2697
606222 2 275.7447 201.6315 1.0899
606226 1 274.6548 200.5416 0.0
606228 1 276.8346 200.5416 2.1798
606234 1 274.6548 200.5416 4.3596
606224 2 277.9245 201.6315 3.2697
608305 2 280.1043 201.6315 1.0899
608309 1 279.0144 200.5416 0.0
608311 1 281.1942 200.5416 2.1798
608317 1 279.0144 200.5416 4.3596
608307 2 282.2841 201.6315 3.2697
610390 2 284.4639 201.6315 1.0899
610392 2 286.6437 201.6315 3.2697
610394 1 283.374 200.5416 0.0
610396 1 285.5538 200.5416 2.1798
610402 1 283.374 200.5416 4.3596
612466 2 288.8235 201.6315 1.0899
612468 2 291.0033 201.6315 3.2697
612470 1 287.7336 200.5416 0.0
612472 1 289.9134 200.5416 2.1798
612478 1 287.7336 200.5416 4.3596
614550 2 293.1831 201.6315 1.0899
614552 2 295.3629 201.6315 3.2697
614554 1 292.0932 200.5416 0.0
614556 1 294.273 200.5416 2.1798
614562 1 292.0932 200.5416 4.3596
616637 2 297.5427 201.6315 1.0899
616639 2 299.7225 201.6315 3.2697
616641 1 296.4528 200.5416 0.0
616643 1 298.6326 200.5416 2.1798
616649 1 296.4528 200.5416 4.3596
570740 2 201.6315 203.8113 3.2697
570742 1 200.5416 202.7214 2.1798
570829 2 201.6315 205.9911 1.0899
570833 1 200.5416 204.9012 0.0
570841 1 200.5416 204.9012 4.3596
570738 2 203.8113 203.8113 1.0899
570744 1 202.7214 202.7214 0.0
570752 1 202.7214 202.7214 4.3596
570831 2 203.8113 205.9911 3.2697
570835 1 202.7214 204.9012 2.1798
572828 2 205.9911 203.8113 3.2697
572830 1 204.9012 202.7214 2.1798
572918 2 205.9911 205.9911 1.0899
572922 1 204.9012 204.9012 0.0
572930 1 204.9012 204.9012 4.3596
572826 2 208.1709 203.8113 1.0899
572832 1 207.081 202.7214 0.0
572840 1 207.081 202.7214 4.3596
572920 2 208.1709 205.9911 3.2697
572924 1 207.081 204.9012 2.1798
574927 2 210.3507 203.8113 3.2697
574929 1 209.2608 202.7214 2.1798
574931 1 211.4406 202.7214 0.0
574939 1 211.4406 202.7214 4.3596
575015 2 210.3507 205.9911 1.0899
575019 1 209.2608 204.9012 0.0
575021 1 211.4406 204.9012 2.1798
575027 1 209.2608 204.9012 4.3596
574925 2 212.5305 203.8113 1.0899
575017 2 212.5305 205.9911 3.2697
577002 2 214.7103 203.8113 3.2697
577004 1 213.6204 202.7214 2.1798
577006 1 215.8002 202.7214 0.0
577014 1 215.8002 202.7214 4.3596
577089 2 214.7103 205.9911 1.0899
577093 1 213.6204 204.9012 0.0
577095 1 215.8002 204.9012 2.1798
577101 1 213.6204 204.9012 4.3596
577000 2 216.8901 203.8113 1.0899
577091 2 216.8901 205.9911 3.2697
579091 2 219.0699 203.8113 3.2697
579093 1 217.98 202.7214 2.1798
579095 1 220.1598 202.7214 0.0
579103 1 220.1598 202.7214 4.3596
579179 2 219.0699 205.9911 1.0899
579183 1 217.98 204.9012 0.0
579185 1 220.1598 204.9012 2.1798
579191 1 217.98 204.9012 4.3596
579089 2 221.2497 203.8113 1.0899
579181 2 221.2497 205.9911 3.2697
581181 2 223.4295 203.8113 3.2697
581183 1 222.3396 202.7214 2.1798
581185 1 224.5194 202.7214 0.0
581193 1 224.5194 202.7214 4.3596
581270 2 223.4295 205.9911 1.0899
581274 1 222.3396 204.9012 0.0
581276 1 224.5194 204.9012 2.1798
581282 1 222.3396 204.9012 4.3596
581179 2 225.6093 203.8113 1.0899
581272 2 225.6093 205.9911 3.2697
583264 2 229.9689 203.8113 1.0899
583266 2 227.7891 203.8113 3.2697
583268 1 226.6992 202.7214 2.1798
583270 1 228.879 202.7214 0.0
583278 1 228.879 202.7214 4.3596
583357 2 227.7891 205.9911 1.0899
583359 2 229.9689 205.9911 3.2697
583361 1 226.6992 204.9012 0.0
583363 1 228.879 204.9012 2.1798
583369 1 226.6992 204.9012 4.3596
585360 2 234.3285 203.8113 1.0899
585362 2 232.1487 203.8113 3.2697
585364 1 231.0588 202.7214 2.1798
585366 1 233.2386 202.7214 0.0
585374 1 233.2386 202.7214 4.3596
585450 2 232.1487 205.9911 1.0899
585452 2 234.3285 205.9911 3.2697
585454 1 231.0588 204.9012 0.0
585456 1 233.2386 204.9012 2.1798
585462 1 231.0588 204.9012 4.3596
587445 2 238.6881 203.8113 1.0899
587447 2 236.5083 203.8113 3.2697
587449 1 235.4184 202.7214 2.1798
587451 1 237.5982 202.7214 0.0
587459 1 237.5982 202.7214 4.3596
587534 2 236.5083 205.9911 1.0899
587536 2 238.6881 205.9911 3.2697
587538 1 235.4184 204.9012 0.0
587540 1 237.5982 204.9012 2.1798
587546 1 235.4184 204.9012 4.3596
589525 2 243.0477 203.8113 1.0899
589527 2 240.8679 203.8113 3.2697
589529 1 239.778 202.7214 2.1798
589531 1 241.9578 202.7214 0.0
589539 1 241.9578 202.7214 4.3596
589616 2 240.8679 205.9911 1.0899
589618 2 243.0477 205.9911 3.2697
589620 1 239.778 204.9012 0.0
589622 1 241.9578 204.9012 2.1798
589628 1 239.778 204.9012 4.3596
591619 1 244.1376 202.7214 2.1798
591708 1 244.1376 204.9012 0.0
591716 1 244.1376 204.9012 4.3596
591615 2 247.4073 203.8113 1.0899
591617 2 245.2275 203.8113 3.2697
591621 1 246.3174 202.7214 0.0
591629 1 246.3174 202.7214 4.3596
591704 2 245.2275 205.9911 1.0899
591706 2 247.4073 205.9911 3.2697
591710 1 246.3174 204.9012 2.1798
593717 1 248.4972 202.7214 2.1798
593804 1 248.4972 204.9012 0.0
593812 1 248.4972 204.9012 4.3596
593713 2 251.7669 203.8113 1.0899
593715 2 249.5871 203.8113 3.2697
593719 1 250.677 202.7214 0.0
593727 1 250.677 202.7214 4.3596
593800 2 249.5871 205.9911 1.0899
593802 2 251.7669 205.9911 3.2697
593806 1 250.677 204.9012 2.1798
595800 1 252.8568 202.7214 2.1798
595889 1 252.8568 204.9012 0.0
595897 1 252.8568 204.9012 4.3596
595796 2 256.1265 203.8113 1.0899
595798 2 253.9467 203.8113 3.2697
595802 1 255.0366 202.7214 0.0
595810 1 255.0366 202.7214 4.3596
595885 2 253.9467 205.9911 1.0899
595887 2 256.1265 205.9911 3.2697
595891 1 255.0366 204.9012 2.1798
597876 2 258.3063 203.8113 3.2697
597878 1 257.2164 202.7214 2.1798
597962 2 258.3063 205.9911 1.0899
597966 1 257.2164 204.9012 0.0
597974 1 257.2164 204.9012 4.3596
597874 2 260.4861 203.8113 1.0899
597880 1 259.3962 202.7214 0.0
597888 1 259.3962 202.7214 4.3596
597964 2 260.4861 205.9911 3.2697
597968 1 259.3962 204.9012 2.1798
599965 2 262.6659 203.8113 3.2697
599967 1 261.576 202.7214 2.1798
600053 2 262.6659 205.9911 1.0899
600057 1 261.576 204.9012 0.0
600065 1 261.576 204.9012 4.3596
599963 2 264.8457 203.8113 1.0899
599969 1 263.7558 202.7214 0.0
599977 1 263.7558 202.7214 4.3596
600055 2 264.8457 205.9911 3.2697
600059 1 263.7558 204.9012 2.1798
602056 2 267.0255 203.8113 3.2697
602058 1 265.9356 202.7214 2.1798
602145 2 267.0255 205.9911 1.0899
602149 1 265.9356 204.9012 0.0
602157 1 265.9356 204.9012 4.3596
602054 2 269.2053 203.8113 1.0899
602060 1 268.1154 202.7214 0.0
602068 1 268.1154 202.7214 4.3596
602147 2 269.2053 205.9911 3.2697
602151 1 268.1154 204.9012 2.1798
604140 2 271.3851 203.8113 3.2697
604142 1 270.2952 202.7214 2.1798
604144 1 272.475 202.7214 0.0
604152 1 272.475 202.7214 4.3596
604228 2 271.3851 205.9911 1.0899
604232 1 270.2952 204.9012 0.0
604234 1 272.475 204.9012 2.1798
604240 1 270.2952 204.9012 4.3596
604138 2 273.5649 203.8113 1.0899
604230 2 273.5649 205.9911 3.2697
606225 2 275.7447 203.8113 3.2697
606227 1 274.6548 202.7214 2.1798
606229 1 276.8346 202.7214 0.0
606237 1 276.8346 202.7214 4.3596
606311 2 275.7447 205.9911 1.0899
606315 1 274.6548 204.9012 0.0
606317 1 276.8346 204.9012 2.1798
606323 1 274.6548 204.9012 4.3596
606223 2 277.9245 203.8113 1.0899
606313 2 277.9245 205.9911 3.2697
608308 2 280.1043 203.8113 3.2697
608310 1 279.0144 202.7214 2.1798
608312 1 281.1942 202.7214 0.0
608320 1 281.1942 202.7214 4.3596
608396 2 280.1043 205.9911 1.0899
608400 1 279.0144 204.9012 0.0
608402 1 281.1942 204.9012 2.1798
608408 1 279.0144 204.9012 4.3596
608306 2 282.2841 203.8113 1.0899
608398 2 282.2841 205.9911 3.2697
610391 2 286.6437 203.8113 1.0899
610393 2 284.4639 203.8113 3.2697
610395 1 283.374 202.7214 2.1798
610397 1 285.5538 202.7214 0.0
610405 1 285.5538 202.7214 4.3596
610480 2 284.4639 205.9911 1.0899
610482 2 286.6437 205.9911 3.2697
610484 1 283.374 204.9012 0.0
610486 1 285.5538 204.9012 2.1798
610492 1 283.374 204.9012 4.3596
612467 2 291.0033 203.8113 1.0899
612469 2 288.8235 203.8113 3.2697
612471 1 287.7336 202.7214 2.1798
612473 1 289.9134 202.7214 0.0
612481 1 289.9134 202.7214 4.3596
612554 2 288.8235 205.9911 1.0899
612556 2 291.0033 205.9911 3.2697
612558 1 287.7336 204.9012 0.0
612560 1 289.9134 204.9012 2.1798
612566 1 287.7336 204.9012 4.3596
614551 2 295.3629 203.8113 1.0899
614553 2 293.1831 203.8113 3.2697
614555 1 292.0932 202.7214 2.1798
614557 1 294.273 202.7214 0.0
614565 1 294.273 202.7214 4.3596
614642 2 293.1831 205.9911 1.0899
614644 2 295.3629 205.9911 3.2697
614646 1 292.0932 204.9012 0.0
614648 1 294.273 204.9012 2.1798
614654 1 292.0932 204.9012 4.3596
616638 2 299.7225 203.8113 1.0899
616640 2 297.5427 203.8113 3.2697
616642 1 296.4528 202.7214 2.1798
616644 1 298.6326 202.7214 0.0
616652 1 298.6326 202.7214 4.3596
616730 2 297.5427 205.9911 1.0899
616732 2 299.7225 205.9911 3.2697
616734 1 296.4528 204.9012 0.0
616736 1 298.6326 204.9012 2.1798
616742 1 296.4528 204.9012 4.3596
570832 2 201.6315 208.1709 3.2697
570834 1 200.5416 207.081 2.1798
570918 2 201.6315 210.3507 1.0899
570922 1 200.5416 209.2608 0.0
570923 1 200.5416 211.4406 2.1798
570930 1 200.5416 209.2608 4.3596
570830 2 203.8113 208.1709 1.0899
570836 1 202.7214 207.081 0.0
570844 1 202.7214 207.081 4.3596
570920 2 203.8113 210.3507 3.2697
570924 1 202.7214 209.2608 2.1798
570925 1 202.7214 211.4406 0.0
570933 1 202.7214 211.4406 4.3596
572921 2 205.9911 208.1709 3.2697
572923 1 204.9012 207.081 2.1798
573012 2 205.9911 210.3507 1.0899
573016 1 204.9012 209.2608 0.0
573017 1 204.9012 211.4406 2.1798
573024 1 204.9012 209.2608 4.3596
572919 2 208.1709 208.1709 1.0899
572925 1 207.081 207.081 0.0
572933 1 207.081 207.081 4.3596
573014 2 208.1709 210.3507 3.2697
573018 1 207.081 209.2608 2.1798
573019 1 207.081 211.4406 0.0
573027 1 207.081 211.4406 4.3596
575018 2 210.3507 208.1709 3.2697
575020 1 209.2608 207.081 2.1798
575022 1 211.4406 207.081 0.0
575030 1 211.4406 207.081 4.3596
575104 2 210.3507 210.3507 1.0899
575108 1 209.2608 209.2608 0.0
575109 1 209.2608 211.4406 2.1798
575110 1 211.4406 209.2608 2.1798
575111 1 211.4406 211.4406 0.0
575116 1 209.2608 209.2608 4.3596
575119 1 211.4406 211.4406 4.3596
575016 2 212.5305 208.1709 1.0899
575106 2 212.5305 210.3507 3.2697
577092 2 214.7103 208.1709 3.2697
577094 1 213.6204 207.081 2.1798
577096 1 215.8002 207.081 0.0
577104 1 215.8002 207.081 4.3596
577179 2 214.7103 210.3507 1.0899
577183 1 213.6204 209.2608 0.0
577184 1 213.6204 211.4406 2.1798
577185 1 215.8002 209.2608 2.1798
577186 1 215.8002 211.4406 0.0
577191 1 213.6204 209.2608 4.3596
577194 1 215.8002 211.4406 4.3596
577090 2 216.8901 208.1709 1.0899
577181 2 216.8901 210.3507 3.2697
579182 2 219.0699 208.1709 3.2697
579184 1 217.98 207.081 2.1798
579186 1 220.1598 207.081 0.0
579194 1 220.1598 207.081 4.3596
579269 2 219.0699 210.3507 1.0899
579273 1 217.98 209.2608 0.0
579274 1 217.98 211.4406 2.1798
579275 1 220.1598 209.2608 2.1798
579276 1 220.1598 211.4406 0.0
579281 1 217.98 209.2608 4.3596
579284 1 220.1598 211.4406 4.3596
579180 2 221.2497 208.1709 1.0899
579271 2 221.2497 210.3507 3.2697
581273 2 223.4295 208.1709 3.2697
581275 1 222.3396 207.081 2.1798
581277 1 224.5194 207.081 0.0
581285 1 224.5194 207.081 4.3596
581363 2 223.4295 210.3507 1.0899
581367 1 222.3396 209.2608 0.0
581368 1 222.3396 211.4406 2.1798
581369 1 224.5194 209.2608 2.1798
581370 1 224.5194 211.4406 0.0
581375 1 222.3396 209.2608 4.3596
581378 1 224.5194 211.4406 4.3596
581271 2 225.6093 208.1709 1.0899
581365 2 225.6093 210.3507 3.2697
583358 2 229.9689 208.1709 1.0899
583360 2 227.7891 208.1709 3.2697
583362 1 226.6992 207.081 2.1798
583364 1 228.879 207.081 0.0
583372 1 228.879 207.081 4.3596
583446 2 227.7891 210.3507 1.0899
583448 2 229.9689 210.3507 3.2697
583450 1 226.6992 209.2608 0.0
583451 1 226.6992 211.4406 2.1798
583452 1 228.879 209.2608 2.1798
583453 1 228.879 211.4406 0.0
583458 1 226.6992 209.2608 4.3596
583461 1 228.879 211.4406 4.3596
585451 2 234.3285 208.1709 1.0899
585453 2 232.1487 208.1709 3.2697
585455 1 231.0588 207.081 2.1798
585457 1 233.2386 207.081 0.0
585465 1 233.2386 207.081 4.3596
585542 2 232.1487 210.3507 1.0899
585544 2 234.3285 210.3507 3.2697
585546 1 231.0588 209.2608 0.0
585547 1 231.0588 211.4406 2.1798
585548 1 233.2386 209.2608 2.1798
585549 1 233.2386 211.4406 0.0
585554 1 231.0588 209.2608 4.3596
585557 1 233.2386 211.4406 4.3596
587535 2 238.6881 208.1709 1.0899
587537 2 236.5083 208.1709 3.2697
587539 1 235.4184 207.081 2.1798
587541 1 237.5982 207.081 0.0
587549 1 237.5982 207.081 4.3596
587623 2 236.5083 210.3507 1.0899
587625 2 238.6881 210.3507 3.2697
587627 1 235.4184 209.2608 0.0
587628 1 235.4184 211.4406 2.1798
587629 1 237.5982 209.2608 2.1798
587630 1 237.5982 211.4406 0.0
587635 1 235.4184 209.2608 4.3596
587638 1 237.5982 211.4406 4.3596
589617 2 243.0477 208.1709 1.0899
589619 2 240.8679 208.1709 3.2697
589621 1 239.778 207.081 2.1798
589623 1 241.9578 207.081 0.0
589631 1 241.9578 207.081 4.3596
589708 2 240.8679 210.3507 1.0899
589710 2 243.0477 210.3507 3.2697
589712 1 239.778 209.2608 0.0
589713 1 239.778 211.4406 2.1798
589714 1 241.9578 209.2608 2.1798
589715 1 241.9578 211.4406 0.0
589720 1 239.778 209.2608 4.3596
589723 1 241.9578 211.4406 4.3596
591709 1 244.1376 207.081 2.1798
591798 1 244.1376 209.2608 0.0
591799 1 244.1376 211.4406 2.1798
591806 1 244.1376 209.2608 4.3596
591705 2 247.4073 208.1709 1.0899
591707 2 245.2275 208.1709 3.2697
591711 1 246.3174 207.081 0.0
591719 1 246.3174 207.081 4.3596
591794 2 245.2275 210.3507 1.0899
591796 2 247.4073 210.3507 3.2697
591800 1 246.3174 209.2608 2.1798
591801 1 246.3174 211.4406 0.0
591809 1 246.3174 211.4406 4.3596
593805 1 248.4972 207.081 2.1798
593894 1 248.4972 209.2608 0.0
593895 1 248.4972 211.4406 2.1798
593902 1 248.4972 209.2608 4.3596
593801 2 251.7669 208.1709 1.0899
593803 2 249.5871 208.1709 3.2697
593807 1 250.677 207.081 0.0
593815 1 250.677 207.081 4.3596
593890 2 249.5871 210.3507 1.0899
593892 2 251.7669 210.3507 3.2697
593896 1 250.677 209.2608 2.1798
593897 1 250.677 211.4406 0.0
593905 1 250.677 211.4406 4.3596
595890 1 252.8568 207.081 2.1798
595979 1 252.8568 209.2608 0.0
595980 1 252.8568 211.4406 2.1798
595987 1 252.8568 209.2608 4.3596
595886 2 256.1265 208.1709 1.0899
595888 2 253.9467 208.1709 3.2697
595892 1 255.0366 207.081 0.0
595900 1 255.0366 207.081 4.3596
595975 2 253.9467 210.3507 1.0899
595977 2 256.1265 210.3507 3.2697
595981 1 255.0366 209.2608 2.1798
595982 1 255.0366 211.4406 0.0
595990 1 255.0366 211.4406 4.3596
597965 2 258.3063 208.1709 3.2697
597967 1 257.2164 207.081 2.1798
598051 2 258.3063 210.3507 1.0899
598055 1 257.2164 209.2608 0.0
598056 1 257.2164 211.4406 2.1798
598063 1 257.2164 209.2608 4.3596
597963 2 260.4861 208.1709 1.0899
597969 1 259.3962 207.081 0.0
597977 1 259.3962 207.081 4.3596
598053 2 260.4861 210.3507 3.2697
598057 1 259.3962 209.2608 2.1798
598058 1 259.3962 211.4406 0.0
598066 1 259.3962 211.4406 4.3596
600056 2 262.6659 208.1709 3.2697
600058 1 261.576 207.081 2.1798
600144 2 262.6659 210.3507 1.0899
600148 1 261.576 209.2608 0.0
600149 1 261.576 211.4406 2.1798
600156 1 261.576 209.2608 4.3596
600054 2 264.8457 208.1709 1.0899
600060 1 263.7558 207.081 0.0
600068 1 263.7558 207.081 4.3596
600146 2 264.8457 210.3507 3.2697
600150 1 263.7558 209.2608 2.1798
600151 1 263.7558 211.4406 0.0
600159 1 263.7558 211.4406 4.3596
602148 2 267.0255 208.1709 3.2697
602150 1 265.9356 207.081 2.1798
602234 2 267.0255 210.3507 1.0899
602238 1 265.9356 209.2608 0.0
602239 1 265.9356 211.4406 2.1798
602246 1 265.9356 209.2608 4.3596
602146 2 269.2053 208.1709 1.0899
602152 1 268.1154 207.081 0.0
602160 1 268.1154 207.081 4.3596
602236 2 269.2053 210.3507 3.2697
602240 1 268.1154 209.2608 2.1798
602241 1 268.1154 211.4406 0.0
602249 1 268.1154 211.4406 4.3596
604231 2 271.3851 208.1709 3.2697
604233 1 270.2952 207.081 2.1798
604235 1 272.475 207.081 0.0
604243 1 272.475 207.081 4.3596
604316 2 271.3851 210.3507 1.0899
604320 1 270.2952 209.2608 0.0
604321 1 270.2952 211.4406 2.1798
604322 1 272.475 209.2608 2.1798
604323 1 272.475 211.4406 0.0
604328 1 270.2952 209.2608 4.3596
604331 1 272.475 211.4406 4.3596
604229 2 273.5649 208.1709 1.0899
604318 2 273.5649 210.3507 3.2697
606314 2 275.7447 208.1709 3.2697
606316 1 274.6548 207.081 2.1798
606318 1 276.8346 207.081 0.0
606326 1 276.8346 207.081 4.3596
606405 2 275.7447 210.3507 1.0899
606409 1 274.6548 209.2608 0.0
606410 1 274.6548 211.4406 2.1798
606411 1 276.8346 209.2608 2.1798
606412 1 276.8346 211.4406 0.0
606417 1 274.6548 209.2608 4.3596
606420 1 276.8346 211.4406 4.3596
606312 2 277.9245 208.1709 1.0899
606407 2 277.9245 210.3507 3.2697
608399 2 280.1043 208.1709 3.2697
608401 1 279.0144 207.081 2.1798
608403 1 281.1942 207.081 0.0
608411 1 281.1942 207.081 4.3596
608488 2 280.1043 210.3507 1.0899
608492 1 279.0144 209.2608 0.0
608493 1 279.0144 211.4406 2.1798
608494 1 281.1942 209.2608 2.1798
608495 1 281.1942 211.4406 0.0
608500 1 279.0144 209.2608 4.3596
608503 1 281.1942 211.4406 4.3596
608397 2 282.2841 208.1709 1.0899
608490 2 282.2841 210.3507 3.2697
610481 2 286.6437 208.1709 1.0899
610483 2 284.4639 208.1709 3.2697
610485 1 283.374 207.081 2.1798
610487 1 285.5538 207.081 0.0
610495 1 285.5538 207.081 4.3596
610569 2 284.4639 210.3507 1.0899
610571 2 286.6437 210.3507 3.2697
610573 1 283.374 209.2608 0.0
610574 1 283.374 211.4406 2.1798
610575 1 285.5538 209.2608 2.1798
610576 1 285.5538 211.4406 0.0
610581 1 283.374 209.2608 4.3596
610584 1 285.5538 211.4406 4.3596
612555 2 291.0033 208.1709 1.0899
612557 2 288.8235 208.1709 3.2697
612559 1 287.7336 207.081 2.1798
612561 1 289.9134 207.081 0.0
612569 1 289.9134 207.081 4.3596
612645 2 288.8235 210.3507 1.0899
612647 2 291.0033 210.3507 3.2697
612649 1 287.7336 209.2608 0.0
612650 1 287.7336 211.4406 2.1798
612651 1 289.9134 209.2608 2.1798
612652 1 289.9134 211.4406 0.0
612657 1 287.7336 209.2608 4.3596
612660 1 289.9134 211.4406 4.3596
614643 2 295.3629 208.1709 1.0899
614645 2 293.1831 208.1709 3.2697
614647 1 292.0932 207.081 2.1798
614649 1 294.273 207.081 0.0
614657 1 294.273 207.081 4.3596
614731 2 293.1831 210.3507 1.0899
614733 2 295.3629 210.3507 3.2697
614735 1 292.0932 209.2608 0.0
614736 1 292.0932 211.4406 2.1798
614737 1 294.273 209.2608 2.1798
614738 1 294.273 211.4406 0.0
614743 1 292.0932 209.2608 4.3596
614746 1 294.273 211.4406 4.3596
616731 2 299.7225 208.1709 1.0899
616733 2 297.5427 208.1709 3.2697
616735 1 296.4528 207.081 2.1798
616737 1 298.6326 207.081 0.0
616745 1 298.6326 207.081 4.3596
616820 2 297.5427 210.3507 1.0899
616822 2 299.7225 210.3507 3.2697
616824 1 296.4528 209.2608 0.0
616825 1 296.4528 211.4406 2.1798
616826 1 298.6326 209.2608 2.1798
616827 1 298.6326 211.4406 0.0
616832 1 296.4528 209.2608 4.3596
616835 1 298.6326 211.4406 4.3596
570921 2 201.6315 212.5305 3.2697
571008 2 201.6315 214.7103 1.0899
571012 1 200.5416 213.6204 0.0
571013 1 200.5416 215.8002 2.1798
571020 1 200.5416 213.6204 4.3596
570919 2 203.8113 212.5305 1.0899
571010 2 203.8113 214.7103 3.2697
571014 1 202.7214 213.6204 2.1798
571015 1 202.7214 215.8002 0.0
571023 1 202.7214 215.8002 4.3596
573015 2 205.9911 212.5305 3.2697
573105 2 205.9911 214.7103 1.0899
573109 1 204.9012 213.6204 0.0
573110 1 204.9012 215.8002 2.1798
573117 1 204.9012 213.6204 4.3596
573013 2 208.1709 212.5305 1.0899
573107 2 208.1709 214.7103 3.2697
573111 1 207.081 213.6204 2.1798
573112 1 207.081 215.8002 0.0
573120 1 207.081 215.8002 4.3596
575107 2 210.3507 212.5305 3.2697
575197 2 210.3507 214.7103 1.0899
575201 1 209.2608 213.6204 0.0
575202 1 209.2608 215.8002 2.1798
575203 1 211.4406 213.6204 2.1798
575204 1 211.4406 215.8002 0.0
575209 1 209.2608 213.6204 4.3596
575212 1 211.4406 215.8002 4.3596
575105 2 212.5305 212.5305 1.0899
575199 2 212.5305 214.7103 3.2697
577182 2 214.7103 212.5305 3.2697
577268 2 214.7103 214.7103 1.0899
577272 1 213.6204 213.6204 0.0
577273 1 213.6204 215.8002 2.1798
577274 1 215.8002 213.6204 2.1798
577275 1 215.8002 215.8002 0.0
577280 1 213.6204 213.6204 4.3596
577283 1 215.8002 215.8002 4.3596
577180 2 216.8901 212.5305 1.0899
577270 2 216.8901 214.7103 3.2697
579272 2 219.0699 212.5305 3.2697
579361 2 219.0699 214.7103 1.0899
579365 1 217.98 213.6204 0.0
579366 1 217.98 215.8002 2.1798
579367 1 220.1598 213.6204 2.1798
579368 1 220.1598 215.8002 0.0
579373 1 217.98 213.6204 4.3596
579376 1 220.1598 215.8002 4.3596
579270 2 221.2497 212.5305 1.0899
579363 2 221.2497 214.7103 3.2697
581366 2 223.4295 212.5305 3.2697
581451 2 223.4295 214.7103 1.0899
581455 1 222.3396 213.6204 0.0
581456 1 222.3396 215.8002 2.1798
581457 1 224.5194 213.6204 2.1798
581458 1 224.5194 215.8002 0.0
581463 1 222.3396 213.6204 4.3596
581466 1 224.5194 215.8002 4.3596
581364 2 225.6093 212.5305 1.0899
581453 2 225.6093 214.7103 3.2697
583447 2 229.9689 212.5305 1.0899
583449 2 227.7891 212.5305 3.2697
583536 2 227.7891 214.7103 1.0899
583538 2 229.9689 214.7103 3.2697
583540 1 226.6992 213.6204 0.0
583541 1 226.6992 215.8002 2.1798
583542 1 228.879 213.6204 2.1798
583543 1 228.879 215.8002 0.0
583548 1 226.6992 213.6204 4.3596
583551 1 228.879 215.8002 4.3596
585543 2 234.3285 212.5305 1.0899
585545 2 232.1487 212.5305 3.2697
585633 2 232.1487 214.7103 1.0899
585635 2 234.3285 214.7103 3.2697
585637 1 231.0588 213.6204 0.0
585638 1 231.0588 215.8002 2.1798
585639 1 233.2386 213.6204 2.1798
585640 1 233.2386 215.8002 0.0
585645 1 231.0588 213.6204 4.3596
585648 1 233.2386 215.8002 4.3596
587624 2 238.6881 212.5305 1.0899
587626 2 236.5083 212.5305 3.2697
587714 2 236.5083 214.7103 1.0899
587716 2 238.6881 214.7103 3.2697
587718 1 235.4184 213.6204 0.0
587719 1 235.4184 215.8002 2.1798
587720 1 237.5982 213.6204 2.1798
587721 1 237.5982 215.8002 0.0
587726 1 235.4184 213.6204 4.3596
587729 1 237.5982 215.8002 4.3596
589709 2 243.0477 212.5305 1.0899
589711 2 240.8679 212.5305 3.2697
589802 2 240.8679 214.7103 1.0899
589804 2 243.0477 214.7103 3.2697
589806 1 239.778 213.6204 0.0
589807 1 239.778 215.8002 2.1798
589808 1 241.9578 213.6204 2.1798
589809 1 241.9578 215.8002 0.0
589814 1 239.778 213.6204 4.3596
589817 1 241.9578 215.8002 4.3596
591890 1 244.1376 213.6204 0.0
591891 1 244.1376 215.8002 2.1798
591898 1 244.1376 213.6204 4.3596
591795 2 247.4073 212.5305 1.0899
591797 2 245.2275 212.5305 3.2697
591886 2 245.2275 214.7103 1.0899
591888 2 247.4073 214.7103 3.2697
591892 1 246.3174 213.6204 2.1798
591893 1 246.3174 215.8002 0.0
591901 1 246.3174 215.8002 4.3596
593986 1 248.4972 213.6204 0.0
593987 1 248.4972 215.8002 2.1798
593994 1 248.4972 213.6204 4.3596
593891 2 251.7669 212.5305 1.0899
593893 2 249.5871 212.5305 3.2697
593982 2 249.5871 214.7103 1.0899
593984 2 251.7669 214.7103 3.2697
593988 1 250.677 213.6204 2.1798
593989 1 250.677 215.8002 0.0
593997 1 250.677 215.8002 4.3596
596070 1 252.8568 213.6204 0.0
596071 1 252.8568 215.8002 2.1798
596078 1 252.8568 213.6204 4.3596
595976 2 256.1265 212.5305 1.0899
595978 2 253.9467 212.5305 3.2697
596066 2 253.9467 214.7103 1.0899
596068 2 256.1265 214.7103 3.2697
596072 1 255.0366 213.6204 2.1798
596073 1 255.0366 215.8002 0.0
596081 1 255.0366 215.8002 4.3596
598054 2 258.3063 212.5305 3.2697
598142 2 258.3063 214.7103 1.0899
598146 1 257.2164 213.6204 0.0
598147 1 257.2164 215.8002 2.1798
598154 1 257.2164 213.6204 4.3596
598052 2 260.4861 212.5305 1.0899
598144 2 260.4861 214.7103 3.2697
598148 1 259.3962 213.6204 2.1798
598149 1 259.3962 215.8002 0.0
598157 1 259.3962 215.8002 4.3596
600147 2 262.6659 212.5305 3.2697
600235 2 262.6659 214.7103 1.0899
600239 1 261.576 213.6204 0.0
600240 1 261.576 215.8002 2.1798
600247 1 261.576 213.6204 4.3596
600145 2 264.8457 212.5305 1.0899
600237 2 264.8457 214.7103 3.2697
600241 1 263.7558 213.6204 2.1798
600242 1 263.7558 215.8002 0.0
600250 1 263.7558 215.8002 4.3596
602237 2 267.0255 212.5305 3.2697
602325 2 267.0255 214.7103 1.0899
602329 1 265.9356 213.6204 0.0
602330 1 265.9356 215.8002 2.1798
602337 1 265.9356 213.6204 4.3596
602235 2 269.2053 212.5305 1.0899
602327 2 269.2053 214.7103 3.2697
602331 1 268.1154 213.6204 2.1798
602332 1 268.1154 215.8002 0.0
602340 1 268.1154 215.8002 4.3596
604319 2 271.3851 212.5305 3.2697
604406 2 271.3851 214.7103 1.0899
604410 1 270.2952 213.6204 0.0
604411 1 270.2952 215.8002 2.1798
604412 1 272.475 213.6204 2.1798
604413 1 272.475 215.8002 0.0
604418 1 270.2952 213.6204 4.3596
604421 1 272.475 215.8002 4.3596
604317 2 273.5649 212.5305 1.0899
604408 2 273.5649 214.7103 3.2697
606408 2 275.7447 212.5305 3.2697
606495 2 275.7447 214.7103 1.0899
606499 1 274.6548 213.6204 0.0
606500 1 274.6548 215.8002 2.1798
606501 1 276.8346 213.6204 2.1798
606502 1 276.8346 215.8002 0.0
606507 1 274.6548 213.6204 4.3596
606510 1 276.8346 215.8002 4.3596
606406 2 277.9245 212.5305 1.0899
606497 2 277.9245 214.7103 3.2697
608491 2 280.1043 212.5305 3.2697
608578 2 280.1043 214.7103 1.0899
608582 1 279.0144 213.6204 0.0
608583 1 279.0144 215.8002 2.1798
608584 1 281.1942 213.6204 2.1798
608585 1 281.1942 215.8002 0.0
608590 1 279.0144 213.6204 4.3596
608593 1 281.1942 215.8002 4.3596
608489 2 282.2841 212.5305 1.0899
608580 2 282.2841 214.7103 3.2697
610570 2 286.6437 212.5305 1.0899
610572 2 284.4639 212.5305 3.2697
610658 2 284.4639 214.7103 1.0899
610660 2 286.6437 214.7103 3.2697
610662 1 283.374 213.6204 0.0
610663 1 283.374 215.8002 2.1798
610664 1 285.5538 213.6204 2.1798
610665 1 285.5538 215.8002 0.0
610670 1 283.374 213.6204 4.3596
610673 1 285.5538 215.8002 4.3596
612646 2 291.0033 212.5305 1.0899
612648 2 288.8235 212.5305 3.2697
612735 2 288.8235 214.7103 1.0899
612737 2 291.0033 214.7103 3.2697
612739 1 287.7336 213.6204 0.0
612740 1 287.7336 215.8002 2.1798
612741 1 289.9134 213.6204 2.1798
612742 1 289.9134 215.8002 0.0
612747 1 287.7336 213.6204 4.3596
612750 1 289.9134 215.8002 4.3596
614732 2 295.3629 212.5305 1.0899
614734 2 293.1831 212.5305 3.2697
614821 2 293.1831 214.7103 1.0899
614823 2 295.3629 214.7103 3.2697
614825 1 292.0932 213.6204 0.0
614826 1 292.0932 215.8002 2.1798
614827 1 294.273 213.6204 2.1798
614828 1 294.273 215.8002 0.0
614833 1 292.0932 213.6204 4.3596
614836 1 294.273 215.8002 4.3596
616821 2 299.7225 212.5305 1.0899
616823 2 297.5427 212.5305 3.2697
616913 2 297.5427 214.7103 1.0899
616915 2 299.7225 214.7103 3.2697
616917 1 296.4528 213.6204 0.0
616918 1 296.4528 215.8002 2.1798
616919 1 298.6326 213.6204 2.1798
616920 1 298.6326 215.8002 0.0
616925 1 296.4528 213.6204 4.3596
616928 1 298.6326 215.8002 4.3596
571011 2 201.6315 216.8901 3.2697
571100 2 201.6315 219.0699 1.0899
571104 1 200.5416 217.98 0.0
571105 1 200.5416 220.1598 2.1798
571112 1 200.5416 217.98 4.3596
571009 2 203.8113 216.8901 1.0899
571102 2 203.8113 219.0699 3.2697
571106 1 202.7214 217.98 2.1798
571107 1 202.7214 220.1598 0.0
571115 1 202.7214 220.1598 4.3596
573108 2 205.9911 216.8901 3.2697
573194 2 205.9911 219.0699 1.0899
573198 1 204.9012 217.98 0.0
573199 1 204.9012 220.1598 2.1798
573206 1 204.9012 217.98 4.3596
573106 2 208.1709 216.8901 1.0899
573196 2 208.1709 219.0699 3.2697
573200 1 207.081 217.98 2.1798
573201 1 207.081 220.1598 0.0
573209 1 207.081 220.1598 4.3596
575200 2 210.3507 216.8901 3.2697
575286 2 210.3507 219.0699 1.0899
575290 1 209.2608 217.98 0.0
575291 1 209.2608 220.1598 2.1798
575292 1 211.4406 217.98 2.1798
575293 1 211.4406 220.1598 0.0