# LAMMPS data file written by Ovito 3.5.4
69787 atoms
2 atom types
0.0 300.8124 xlo xhi
0.0 300.8124 ylo yhi
0.0 122.0688 zlo zhi

Atoms  # atomic

338933 2 201.6315 1.0899 1.0899
338936 2 201.6315 3.2697 3.2697
338937 1 200.5416 0.0 0.0
338938 1 200.5416 2.1798 2.1798
338945 1 200.5416 0.0 4.3596
339029 1 200.5416 4.3596 0.0
339037 1 200.5416 4.3596 4.3596
338934 2 203.8113 3.2697 1.0899
338935 2 203.8113 1.0899 3.2697
338939 1 202.7214 0.0 2.1798
338940 1 202.7214 2.1798 0.0
338948 1 202.7214 2.1798 4.3596
339031 1 202.7214 4.3596 2.1798
341021 2 205.9911 1.0899 1.0899
341024 2 205.9911 3.2697 3.2697
341025 1 204.9012 0.0 0.0
341026 1 204.9012 2.1798 2.1798
341033 1 204.9012 0.0 4.3596
341118 1 204.9012 4.3596 0.0
341126 1 204.9012 4.3596 4.3596
341022 2 208.1709 3.2697 1.0899
341023 2 208.1709 1.0899 3.2697
341027 1 207.081 0.0 2.1798
341028 1 207.081 2.1798 0.0
341036 1 207.081 2.1798 4.3596
341120 1 207.081 4.3596 2.1798
343120 2 210.3507 1.0899 1.0899
343123 2 210.3507 3.2697 3.2697
343124 1 209.2608 0.0 0.0
343125 1 209.2608 2.1798 2.1798
343126 1 211.4406 0.0 2.1798
343127 1 211.4406 2.1798 0.0
343132 1 209.2608 0.0 4.3596
343135 1 211.4406 2.1798 4.3596
343215 1 209.2608 4.3596 0.0
343217 1 211.4406 4.3596 2.1798
343223 1 209.2608 4.3596 4.3596
343121 2 212.5305 3.2697 1.0899
343122 2 212.5305 1.0899 3.2697
345195 2 214.7103 1.0899 1.0899
345198 2 214.7103 3.2697 3.2697
345199 1 213.6204 0.0 0.0
345200 1 213.6204 2.1798 2.1798
345201 1 215.8002 0.0 2.1798
345202 1 215.8002 2.1798 0.0
345207 1 213.6204 0.0 4.3596
345210 1 215.8002 2.1798 4.3596
345289 1 213.6204 4.3596 0.0
345291 1 215.8002 4.3596 2.1798
345297 1 213.6204 4.3596 4.3596
345196 2 216.8901 3.2697 1.0899
345197 2 216.8901 1.0899 3.2697
347284 2 219.0699 1.0899 1.0899
347287 2 219.0699 3.2697 3.2697
347288 1 217.98 0.0 0.0
347289 1 217.98 2.1798 2.1798
347290 1 220.1598 0.0 2.1798
347291 1 220.1598 2.1798 0.0
347296 1 217.98 0.0 4.3596
347299 1 220.1598 2.1798 4.3596
347379 1 217.98 4.3596 0.0
347381 1 220.1598 4.3596 2.1798
347387 1 217.98 4.3596 4.3596
347285 2 221.2497 3.2697 1.0899
347286 2 221.2497 1.0899 3.2697
349374 2 223.4295 1.0899 1.0899
349377 2 223.4295 3.2697 3.2697
349378 1 222.3396 0.0 0.0
349379 1 222.3396 2.1798 2.1798
349380 1 224.5194 0.0 2.1798
349381 1 224.5194 2.1798 0.0
349386 1 222.3396 0.0 4.3596
349389 1 224.5194 2.1798 4.3596
349470 1 222.3396 4.3596 0.0
349472 1 224.5194 4.3596 2.1798
349478 1 222.3396 4.3596 4.3596
349375 2 225.6093 3.2697 1.0899
349376 2 225.6093 1.0899 3.2697
351459 2 227.7891 1.0899 1.0899
351460 2 229.9689 3.2697 1.0899
351461 2 229.9689 1.0899 3.2697
351462 2 227.7891 3.2697 3.2697
351463 1 226.6992 0.0 0.0
351464 1 226.6992 2.1798 2.1798
351465 1 228.879 0.0 2.1798
351466 1 228.879 2.1798 0.0
351471 1 226.6992 0.0 4.3596
351474 1 228.879 2.1798 4.3596
351557 1 226.6992 4.3596 0.0
351559 1 228.879 4.3596 2.1798
351565 1 226.6992 4.3596 4.3596
353555 2 232.1487 1.0899 1.0899
353556 2 234.3285 3.2697 1.0899
353557 2 234.3285 1.0899 3.2697
353558 2 232.1487 3.2697 3.2697
353559 1 231.0588 0.0 0.0
353560 1 231.0588 2.1798 2.1798
353561 1 233.2386 0.0 2.1798
353562 1 233.2386 2.1798 0.0
353567 1 231.0588 0.0 4.3596
353570 1 233.2386 2.1798 4.3596
353650 1 231.0588 4.3596 0.0
353652 1 233.2386 4.3596 2.1798
353658 1 231.0588 4.3596 4.3596
355640 2 236.5083 1.0899 1.0899
355641 2 238.6881 3.2697 1.0899
355642 2 238.6881 1.0899 3.2697
355643 2 236.5083 3.2697 3.2697
355644 1 235.4184 0.0 0.0
355645 1 235.4184 2.1798 2.1798
355646 1 237.5982 0.0 2.1798
355647 1 237.5982 2.1798 0.0
355652 1 235.4184 0.0 4.3596
355655 1 237.5982 2.1798 4.3596
355734 1 235.4184 4.3596 0.0
355736 1 237.5982 4.3596 2.1798
355742 1 235.4184 4.3596 4.3596
357720 2 240.8679 1.0899 1.0899
357721 2 243.0477 3.2697 1.0899
357722 2 243.0477 1.0899 3.2697
357723 2 240.8679 3.2697 3.2697
357724 1 239.778 0.0 0.0
357725 1 239.778 2.1798 2.1798
357726 1 241.9578 0.0 2.1798
357727 1 241.9578 2.1798 0.0
357732 1 239.778 0.0 4.3596
357735 1 241.9578 2.1798 4.3596
357816 1 239.778 4.3596 0.0
357818 1 241.9578 4.3596 2.1798
357824 1 239.778 4.3596 4.3596
359814 1 244.1376 0.0 0.0
359815 1 244.1376 2.1798 2.1798
359822 1 244.1376 0.0 4.3596
359904 1 244.1376 4.3596 0.0
359912 1 244.1376 4.3596 4.3596
359810 2 245.2275 1.0899 1.0899
359811 2 247.4073 3.2697 1.0899
359812 2 247.4073 1.0899 3.2697
359813 2 245.2275 3.2697 3.2697
359816 1 246.3174 0.0 2.1798
359817 1 246.3174 2.1798 0.0
359825 1 246.3174 2.1798 4.3596
359906 1 246.3174 4.3596 2.1798
361912 1 248.4972 0.0 0.0
361913 1 248.4972 2.1798 2.1798
361920 1 248.4972 0.0 4.3596
362000 1 248.4972 4.3596 0.0
362008 1 248.4972 4.3596 4.3596
361908 2 249.5871 1.0899 1.0899
361909 2 251.7669 3.2697 1.0899
361910 2 251.7669 1.0899 3.2697
361911 2 249.5871 3.2697 3.2697
361914 1 250.677 0.0 2.1798
361915 1 250.677 2.1798 0.0
361923 1 250.677 2.1798 4.3596
362002 1 250.677 4.3596 2.1798
363995 1 252.8568 0.0 0.0
363996 1 252.8568 2.1798 2.1798
364003 1 252.8568 0.0 4.3596
364085 1 252.8568 4.3596 0.0
364093 1 252.8568 4.3596 4.3596
363991 2 253.9467 1.0899 1.0899
363992 2 256.1265 3.2697 1.0899
363993 2 256.1265 1.0899 3.2697
363994 2 253.9467 3.2697 3.2697
363997 1 255.0366 0.0 2.1798
363998 1 255.0366 2.1798 0.0
364006 1 255.0366 2.1798 4.3596
364087 1 255.0366 4.3596 2.1798
366069 2 258.3063 1.0899 1.0899
366072 2 258.3063 3.2697 3.2697
366073 1 257.2164 0.0 0.0
366074 1 257.2164 2.1798 2.1798
366081 1 257.2164 0.0 4.3596
366162 1 257.2164 4.3596 0.0
366170 1 257.2164 4.3596 4.3596
366070 2 260.4861 3.2697 1.0899
366071 2 260.4861 1.0899 3.2697
366075 1 259.3962 0.0 2.1798
366076 1 259.3962 2.1798 0.0
366084 1 259.3962 2.1798 4.3596
366164 1 259.3962 4.3596 2.1798
368158 2 262.6659 1.0899 1.0899
368161 2 262.6659 3.2697 3.2697
368162 1 261.576 0.0 0.0
368163 1 261.576 2.1798 2.1798
368170 1 261.576 0.0 4.3596
368253 1 261.576 4.3596 0.0
368261 1 261.576 4.3596 4.3596
368159 2 264.8457 3.2697 1.0899
368160 2 264.8457 1.0899 3.2697
368164 1 263.7558 0.0 2.1798
368165 1 263.7558 2.1798 0.0
368173 1 263.7558 2.1798 4.3596
368255 1 263.7558 4.3596 2.1798
370249 2 267.0255 1.0899 1.0899
370252 2 267.0255 3.2697 3.2697
370253 1 265.9356 0.0 0.0
370254 1 265.9356 2.1798 2.1798
370261 1 265.9356 0.0 4.3596
370345 1 265.9356 4.3596 0.0
370353 1 265.9356 4.3596 4.3596
370250 2 269.2053 3.2697 1.0899
370251 2 269.2053 1.0899 3.2697
370255 1 268.1154 0.0 2.1798
370256 1 268.1154 2.1798 0.0
370264 1 268.1154 2.1798 4.3596
370347 1 268.1154 4.3596 2.1798
372333 2 271.3851 1.0899 1.0899
372336 2 271.3851 3.2697 3.2697
372337 1 270.2952 0.0 0.0
372338 1 270.2952 2.1798 2.1798
372339 1 272.475 0.0 2.1798
372340 1 272.475 2.1798 0.0
372345 1 270.2952 0.0 4.3596
372348 1 272.475 2.1798 4.3596
372428 1 270.2952 4.3596 0.0
372430 1 272.475 4.3596 2.1798
372436 1 270.2952 4.3596 4.3596
372334 2 273.5649 3.2697 1.0899
372335 2 273.5649 1.0899 3.2697
374418 2 275.7447 1.0899 1.0899
374421 2 275.7447 3.2697 3.2697
374422 1 274.6548 0.0 0.0
374423 1 274.6548 2.1798 2.1798
374424 1 276.8346 0.0 2.1798
374425 1 276.8346 2.1798 0.0
374430 1 274.6548 0.0 4.3596
374433 1 276.8346 2.1798 4.3596
374511 1 274.6548 4.3596 0.0
374513 1 276.8346 4.3596 2.1798
374519 1 274.6548 4.3596 4.3596
374419 2 277.9245 3.2697 1.0899
374420 2 277.9245 1.0899 3.2697
376501 2 280.1043 1.0899 1.0899
376504 2 280.1043 3.2697 3.2697
376505 1 279.0144 0.0 0.0
376506 1 279.0144 2.1798 2.1798
376507 1 281.1942 0.0 2.1798
376508 1 281.1942 2.1798 0.0
376513 1 279.0144 0.0 4.3596
376516 1 281.1942 2.1798 4.3596
376596 1 279.0144 4.3596 0.0
376598 1 281.1942 4.3596 2.1798
376604 1 279.0144 4.3596 4.3596
376502 2 282.2841 3.2697 1.0899
376503 2 282.2841 1.0899 3.2697
378586 2 284.4639 1.0899 1.0899
378587 2 286.6437 3.2697 1.0899
378588 2 286.6437 1.0899 3.2697
378589 2 284.4639 3.2697 3.2697
378590 1 283.374 0.0 0.0
378591 1 283.374 2.1798 2.1798
378592 1 285.5538 0.0 2.1798
378593 1 285.5538 2.1798 0.0
378598 1 283.374 0.0 4.3596
378601 1 285.5538 2.1798 4.3596
378680 1 283.374 4.3596 0.0
378682 1 285.5538 4.3596 2.1798
378688 1 283.374 4.3596 4.3596
380662 2 288.8235 1.0899 1.0899
380663 2 291.0033 3.2697 1.0899
380664 2 291.0033 1.0899 3.2697
380665 2 288.8235 3.2697 3.2697
380666 1 287.7336 0.0 0.0
380667 1 287.7336 2.1798 2.1798
380668 1 289.9134 0.0 2.1798
380669 1 289.9134 2.1798 0.0
380674 1 287.7336 0.0 4.3596
380677 1 289.9134 2.1798 4.3596
380754 1 287.7336 4.3596 0.0
380756 1 289.9134 4.3596 2.1798
380762 1 287.7336 4.3596 4.3596
382746 2 293.1831 1.0899 1.0899
382747 2 295.3629 3.2697 1.0899
382748 2 295.3629 1.0899 3.2697
382749 2 293.1831 3.2697 3.2697
382750 1 292.0932 0.0 0.0
382751 1 292.0932 2.1798 2.1798
382752 1 294.273 0.0 2.1798
382753 1 294.273 2.1798 0.0
382758 1 292.0932 0.0 4.3596
382761 1 294.273 2.1798 4.3596
382842 1 292.0932 4.3596 0.0
382844 1 294.273 4.3596 2.1798
382850 1 292.0932 4.3596 4.3596
384833 2 297.5427 1.0899 1.0899
384834 2 299.7225 3.2697 1.0899
384835 2 299.7225 1.0899 3.2697
384836 2 297.5427 3.2697 3.2697
384837 1 296.4528 0.0 0.0
384838 1 296.4528 2.1798 2.1798
384839 1 298.6326 0.0 2.1798
384840 1 298.6326 2.1798 0.0
384845 1 296.4528 0.0 4.3596
384848 1 298.6326 2.1798 4.3596
384930 1 296.4528 4.3596 0.0
384932 1 298.6326 4.3596 2.1798
384938 1 296.4528 4.3596 4.3596
339025 2 201.6315 5.4495 1.0899
339028 2 201.6315 7.6293 3.2697
339030 1 200.5416 6.5394 2.1798
339118 1 200.5416 8.7192 0.0
339126 1 200.5416 8.7192 4.3596
339026 2 203.8113 7.6293 1.0899
339027 2 203.8113 5.4495 3.2697
339032 1 202.7214 6.5394 0.0
339040 1 202.7214 6.5394 4.3596
339120 1 202.7214 8.7192 2.1798
341114 2 205.9911 5.4495 1.0899
341117 2 205.9911 7.6293 3.2697
341119 1 204.9012 6.5394 2.1798
341212 1 204.9012 8.7192 0.0
341220 1 204.9012 8.7192 4.3596
341115 2 208.1709 7.6293 1.0899
341116 2 208.1709 5.4495 3.2697
341121 1 207.081 6.5394 0.0
341129 1 207.081 6.5394 4.3596
341214 1 207.081 8.7192 2.1798
343211 2 210.3507 5.4495 1.0899
343214 2 210.3507 7.6293 3.2697
343216 1 209.2608 6.5394 2.1798
343218 1 211.4406 6.5394 0.0
343226 1 211.4406 6.5394 4.3596
343304 1 209.2608 8.7192 0.0
343306 1 211.4406 8.7192 2.1798
343312 1 209.2608 8.7192 4.3596
343212 2 212.5305 7.6293 1.0899
343213 2 212.5305 5.4495 3.2697
345285 2 214.7103 5.4495 1.0899
345288 2 214.7103 7.6293 3.2697
345290 1 213.6204 6.5394 2.1798
345292 1 215.8002 6.5394 0.0
345300 1 215.8002 6.5394 4.3596
345379 1 213.6204 8.7192 0.0
345381 1 215.8002 8.7192 2.1798
345387 1 213.6204 8.7192 4.3596
345286 2 216.8901 7.6293 1.0899
345287 2 216.8901 5.4495 3.2697
347375 2 219.0699 5.4495 1.0899
347378 2 219.0699 7.6293 3.2697
347380 1 217.98 6.5394 2.1798
347382 1 220.1598 6.5394 0.0
347390 1 220.1598 6.5394 4.3596
347469 1 217.98 8.7192 0.0
347471 1 220.1598 8.7192 2.1798
347477 1 217.98 8.7192 4.3596
347376 2 221.2497 7.6293 1.0899
347377 2 221.2497 5.4495 3.2697
349466 2 223.4295 5.4495 1.0899
349469 2 223.4295 7.6293 3.2697
349471 1 222.3396 6.5394 2.1798
349473 1 224.5194 6.5394 0.0
349481 1 224.5194 6.5394 4.3596
349563 1 222.3396 8.7192 0.0
349565 1 224.5194 8.7192 2.1798
349571 1 222.3396 8.7192 4.3596
349467 2 225.6093 7.6293 1.0899
349468 2 225.6093 5.4495 3.2697
351553 2 227.7891 5.4495 1.0899
351554 2 229.9689 7.6293 1.0899
351555 2 229.9689 5.4495 3.2697
351556 2 227.7891 7.6293 3.2697
351558 1 226.6992 6.5394 2.1798
351560 1 228.879 6.5394 0.0
351568 1 228.879 6.5394 4.3596
351646 1 226.6992 8.7192 0.0
351648 1 228.879 8.7192 2.1798
351654 1 226.6992 8.7192 4.3596
353646 2 232.1487 5.4495 1.0899
353647 2 234.3285 7.6293 1.0899
353648 2 234.3285 5.4495 3.2697
353649 2 232.1487 7.6293 3.2697
353651 1 231.0588 6.5394 2.1798
353653 1 233.2386 6.5394 0.0
353661 1 233.2386 6.5394 4.3596
353742 1 231.0588 8.7192 0.0
353744 1 233.2386 8.7192 2.1798
353750 1 231.0588 8.7192 4.3596
355730 2 236.5083 5.4495 1.0899
355731 2 238.6881 7.6293 1.0899
355732 2 238.6881 5.4495 3.2697
355733 2 236.5083 7.6293 3.2697
355735 1 235.4184 6.5394 2.1798
355737 1 237.5982 6.5394 0.0
355745 1 237.5982 6.5394 4.3596
355823 1 235.4184 8.7192 0.0
355825 1 237.5982 8.7192 2.1798
355831 1 235.4184 8.7192 4.3596
357812 2 240.8679 5.4495 1.0899
357813 2 243.0477 7.6293 1.0899
357814 2 243.0477 5.4495 3.2697
357815 2 240.8679 7.6293 3.2697
357817 1 239.778 6.5394 2.1798
357819 1 241.9578 6.5394 0.0
357827 1 241.9578 6.5394 4.3596
357908 1 239.778 8.7192 0.0
357910 1 241.9578 8.7192 2.1798
357916 1 239.778 8.7192 4.3596
359905 1 244.1376 6.5394 2.1798
359994 1 244.1376 8.7192 0.0
360002 1 244.1376 8.7192 4.3596
359900 2 245.2275 5.4495 1.0899
359901 2 247.4073 7.6293 1.0899
359902 2 247.4073 5.4495 3.2697
359903 2 245.2275 7.6293 3.2697
359907 1 246.3174 6.5394 0.0
359915 1 246.3174 6.5394 4.3596
359996 1 246.3174 8.7192 2.1798
362001 1 248.4972 6.5394 2.1798
362090 1 248.4972 8.7192 0.0
362098 1 248.4972 8.7192 4.3596
361996 2 249.5871 5.4495 1.0899
361997 2 251.7669 7.6293 1.0899
361998 2 251.7669 5.4495 3.2697
361999 2 249.5871 7.6293 3.2697
362003 1 250.677 6.5394 0.0
362011 1 250.677 6.5394 4.3596
362092 1 250.677 8.7192 2.1798
364086 1 252.8568 6.5394 2.1798
364175 1 252.8568 8.7192 0.0
364183 1 252.8568 8.7192 4.3596
364081 2 253.9467 5.4495 1.0899
364082 2 256.1265 7.6293 1.0899
364083 2 256.1265 5.4495 3.2697
364084 2 253.9467 7.6293 3.2697
364088 1 255.0366 6.5394 0.0
364096 1 255.0366 6.5394 4.3596
364177 1 255.0366 8.7192 2.1798
366158 2 258.3063 5.4495 1.0899
366161 2 258.3063 7.6293 3.2697
366163 1 257.2164 6.5394 2.1798
366251 1 257.2164 8.7192 0.0
366259 1 257.2164 8.7192 4.3596
366159 2 260.4861 7.6293 1.0899
366160 2 260.4861 5.4495 3.2697
366165 1 259.3962 6.5394 0.0
366173 1 259.3962 6.5394 4.3596
366253 1 259.3962 8.7192 2.1798
368249 2 262.6659 5.4495 1.0899
368252 2 262.6659 7.6293 3.2697
368254 1 261.576 6.5394 2.1798
368344 1 261.576 8.7192 0.0
368352 1 261.576 8.7192 4.3596
368250 2 264.8457 7.6293 1.0899
368251 2 264.8457 5.4495 3.2697
368256 1 263.7558 6.5394 0.0
368264 1 263.7558 6.5394 4.3596
368346 1 263.7558 8.7192 2.1798
370341 2 267.0255 5.4495 1.0899
370344 2 267.0255 7.6293 3.2697
370346 1 265.9356 6.5394 2.1798
370434 1 265.9356 8.7192 0.0
370442 1 265.9356 8.7192 4.3596
370342 2 269.2053 7.6293 1.0899
370343 2 269.2053 5.4495 3.2697
370348 1 268.1154 6.5394 0.0
370356 1 268.1154 6.5394 4.3596
370436 1 268.1154 8.7192 2.1798
372424 2 271.3851 5.4495 1.0899
372427 2 271.3851 7.6293 3.2697
372429 1 270.2952 6.5394 2.1798
372431 1 272.475 6.5394 0.0
372439 1 272.475 6.5394 4.3596
372516 1 270.2952 8.7192 0.0
372518 1 272.475 8.7192 2.1798
372524 1 270.2952 8.7192 4.3596
372425 2 273.5649 7.6293 1.0899
372426 2 273.5649 5.4495 3.2697
374507 2 275.7447 5.4495 1.0899
374510 2 275.7447 7.6293 3.2697
374512 1 274.6548 6.5394 2.1798
374514 1 276.8346 6.5394 0.0
374522 1 276.8346 6.5394 4.3596
374605 1 274.6548 8.7192 0.0
374607 1 276.8346 8.7192 2.1798
374613 1 274.6548 8.7192 4.3596
374508 2 277.9245 7.6293 1.0899
374509 2 277.9245 5.4495 3.2697
376592 2 280.1043 5.4495 1.0899
376595 2 280.1043 7.6293 3.2697
376597 1 279.0144 6.5394 2.1798
376599 1 281.1942 6.5394 0.0
376607 1 281.1942 6.5394 4.3596
376688 1 279.0144 8.7192 0.0
376690 1 281.1942 8.7192 2.1798
376696 1 279.0144 8.7192 4.3596
376593 2 282.2841 7.6293 1.0899
376594 2 282.2841 5.4495 3.2697
378676 2 284.4639 5.4495 1.0899
378677 2 286.6437 7.6293 1.0899
378678 2 286.6437 5.4495 3.2697
378679 2 284.4639 7.6293 3.2697
378681 1 283.374 6.5394 2.1798
378683 1 285.5538 6.5394 0.0
378691 1 285.5538 6.5394 4.3596
378769 1 283.374 8.7192 0.0
378771 1 285.5538 8.7192 2.1798
378777 1 283.374 8.7192 4.3596
380750 2 288.8235 5.4495 1.0899
380751 2 291.0033 7.6293 1.0899
380752 2 291.0033 5.4495 3.2697
380753 2 288.8235 7.6293 3.2697
380755 1 287.7336 6.5394 2.1798
380757 1 289.9134 6.5394 0.0
380765 1 289.9134 6.5394 4.3596
380845 1 287.7336 8.7192 0.0
380847 1 289.9134 8.7192 2.1798
380853 1 287.7336 8.7192 4.3596
382838 2 293.1831 5.4495 1.0899
382839 2 295.3629 7.6293 1.0899
382840 2 295.3629 5.4495 3.2697
382841 2 293.1831 7.6293 3.2697
382843 1 292.0932 6.5394 2.1798
382845 1 294.273 6.5394 0.0
382853 1 294.273 6.5394 4.3596
382931 1 292.0932 8.7192 0.0
382933 1 294.273 8.7192 2.1798
382939 1 292.0932 8.7192 4.3596
384926 2 297.5427 5.4495 1.0899
384927 2 299.7225 7.6293 1.0899
384928 2 299.7225 5.4495 3.2697
384929 2 297.5427 7.6293 3.2697
384931 1 296.4528 6.5394 2.1798
384933 1 298.6326 6.5394 0.0
384941 1 298.6326 6.5394 4.3596
385020 1 296.4528 8.7192 0.0
385022 1 298.6326 8.7192 2.1798
385028 1 296.4528 8.7192 4.3596
339114 2 201.6315 9.8091 1.0899
339117 2 201.6315 11.9889 3.2697
339119 1 200.5416 10.899 2.1798
339208 1 200.5416 13.0788 0.0
339216 1 200.5416 13.0788 4.3596
339115 2 203.8113 11.9889 1.0899
339116 2 203.8113 9.8091 3.2697
339121 1 202.7214 10.899 0.0
339129 1 202.7214 10.899 4.3596
339210 1 202.7214 13.0788 2.1798
341208 2 205.9911 9.8091 1.0899
341211 2 205.9911 11.9889 3.2697
341213 1 204.9012 10.899 2.1798
341305 1 204.9012 13.0788 0.0
341313 1 204.9012 13.0788 4.3596
341209 2 208.1709 11.9889 1.0899
341210 2 208.1709 9.8091 3.2697
341215 1 207.081 10.899 0.0
341223 1 207.081 10.899 4.3596
341307 1 207.081 13.0788 2.1798
343300 2 210.3507 9.8091 1.0899
343303 2 210.3507 11.9889 3.2697
343305 1 209.2608 10.899 2.1798
343307 1 211.4406 10.899 0.0
343315 1 211.4406 10.899 4.3596
343397 1 209.2608 13.0788 0.0
343399 1 211.4406 13.0788 2.1798
343405 1 209.2608 13.0788 4.3596
343301 2 212.5305 11.9889 1.0899
343302 2 212.5305 9.8091 3.2697
345375 2 214.7103 9.8091 1.0899
345378 2 214.7103 11.9889 3.2697
345380 1 213.6204 10.899 2.1798
345382 1 215.8002 10.899 0.0
345390 1 215.8002 10.899 4.3596
345468 1 213.6204 13.0788 0.0
345470 1 215.8002 13.0788 2.1798
345476 1 213.6204 13.0788 4.3596
345376 2 216.8901 11.9889 1.0899
345377 2 216.8901 9.8091 3.2697
347465 2 219.0699 9.8091 1.0899
347468 2 219.0699 11.9889 3.2697
347470 1 217.98 10.899 2.1798
347472 1 220.1598 10.899 0.0
347480 1 220.1598 10.899 4.3596
347561 1 217.98 13.0788 0.0
347563 1 220.1598 13.0788 2.1798
347569 1 217.98 13.0788 4.3596
347466 2 221.2497 11.9889 1.0899
347467 2 221.2497 9.8091 3.2697
349559 2 223.4295 9.8091 1.0899
349562 2 223.4295 11.9889 3.2697
349564 1 222.3396 10.899 2.1798
349566 1 224.5194 10.899 0.0
349574 1 224.5194 10.899 4.3596
349651 1 222.3396 13.0788 0.0
349653 1 224.5194 13.0788 2.1798
349659 1 222.3396 13.0788 4.3596
349560 2 225.6093 11.9889 1.0899
349561 2 225.6093 9.8091 3.2697
351642 2 227.7891 9.8091 1.0899
351643 2 229.9689 11.9889 1.0899
351644 2 229.9689 9.8091 3.2697
351645 2 227.7891 11.9889 3.2697
351647 1 226.6992 10.899 2.1798
351649 1 228.879 10.899 0.0
351657 1 228.879 10.899 4.3596
351736 1 226.6992 13.0788 0.0
351738 1 228.879 13.0788 2.1798
351744 1 226.6992 13.0788 4.3596
353738 2 232.1487 9.8091 1.0899
353739 2 234.3285 11.9889 1.0899
353740 2 234.3285 9.8091 3.2697
353741 2 232.1487 11.9889 3.2697
353743 1 231.0588 10.899 2.1798
353745 1 233.2386 10.899 0.0
353753 1 233.2386 10.899 4.3596
353833 1 231.0588 13.0788 0.0
353835 1 233.2386 13.0788 2.1798
353841 1 231.0588 13.0788 4.3596
355819 2 236.5083 9.8091 1.0899
355820 2 238.6881 11.9889 1.0899
355821 2 238.6881 9.8091 3.2697
355822 2 236.5083 11.9889 3.2697
355824 1 235.4184 10.899 2.1798
355826 1 237.5982 10.899 0.0
355834 1 237.5982 10.899 4.3596
355914 1 235.4184 13.0788 0.0
355916 1 237.5982 13.0788 2.1798
355922 1 235.4184 13.0788 4.3596
357904 2 240.8679 9.8091 1.0899
357905 2 243.0477 11.9889 1.0899
357906 2 243.0477 9.8091 3.2697
357907 2 240.8679 11.9889 3.2697
357909 1 239.778 10.899 2.1798
357911 1 241.9578 10.899 0.0
357919 1 241.9578 10.899 4.3596
358002 1 239.778 13.0788 0.0
358004 1 241.9578 13.0788 2.1798
358010 1 239.778 13.0788 4.3596
359995 1 244.1376 10.899 2.1798
360086 1 244.1376 13.0788 0.0
360094 1 244.1376 13.0788 4.3596
359990 2 245.2275 9.8091 1.0899
359991 2 247.4073 11.9889 1.0899
359992 2 247.4073 9.8091 3.2697
359993 2 245.2275 11.9889 3.2697
359997 1 246.3174 10.899 0.0
360005 1 246.3174 10.899 4.3596
360088 1 246.3174 13.0788 2.1798
362091 1 248.4972 10.899 2.1798
362182 1 248.4972 13.0788 0.0
362190 1 248.4972 13.0788 4.3596
362086 2 249.5871 9.8091 1.0899
362087 2 251.7669 11.9889 1.0899
362088 2 251.7669 9.8091 3.2697
362089 2 249.5871 11.9889 3.2697
362093 1 250.677 10.899 0.0
362101 1 250.677 10.899 4.3596
362184 1 250.677 13.0788 2.1798
364176 1 252.8568 10.899 2.1798
364266 1 252.8568 13.0788 0.0
364274 1 252.8568 13.0788 4.3596
364171 2 253.9467 9.8091 1.0899
364172 2 256.1265 11.9889 1.0899
364173 2 256.1265 9.8091 3.2697
364174 2 253.9467 11.9889 3.2697
364178 1 255.0366 10.899 0.0
364186 1 255.0366 10.899 4.3596
364268 1 255.0366 13.0788 2.1798
366247 2 258.3063 9.8091 1.0899
366250 2 258.3063 11.9889 3.2697
366252 1 257.2164 10.899 2.1798
366342 1 257.2164 13.0788 0.0
366350 1 257.2164 13.0788 4.3596
366248 2 260.4861 11.9889 1.0899
366249 2 260.4861 9.8091 3.2697
366254 1 259.3962 10.899 0.0
366262 1 259.3962 10.899 4.3596
366344 1 259.3962 13.0788 2.1798
368340 2 262.6659 9.8091 1.0899
368343 2 262.6659 11.9889 3.2697
368345 1 261.576 10.899 2.1798
368435 1 261.576 13.0788 0.0
368443 1 261.576 13.0788 4.3596
368341 2 264.8457 11.9889 1.0899
368342 2 264.8457 9.8091 3.2697
368347 1 263.7558 10.899 0.0
368355 1 263.7558 10.899 4.3596
368437 1 263.7558 13.0788 2.1798
370430 2 267.0255 9.8091 1.0899
370433 2 267.0255 11.9889 3.2697
370435 1 265.9356 10.899 2.1798
370525 1 265.9356 13.0788 0.0
370533 1 265.9356 13.0788 4.3596
370431 2 269.2053 11.9889 1.0899
370432 2 269.2053 9.8091 3.2697
370437 1 268.1154 10.899 0.0
370445 1 268.1154 10.899 4.3596
370527 1 268.1154 13.0788 2.1798
372512 2 271.3851 9.8091 1.0899
372515 2 271.3851 11.9889 3.2697
372517 1 270.2952 10.899 2.1798
372519 1 272.475 10.899 0.0
372527 1 272.475 10.899 4.3596
372606 1 270.2952 13.0788 0.0
372608 1 272.475 13.0788 2.1798
372614 1 270.2952 13.0788 4.3596
372513 2 273.5649 11.9889 1.0899
372514 2 273.5649 9.8091 3.2697
374601 2 275.7447 9.8091 1.0899
374604 2 275.7447 11.9889 3.2697
374606 1 274.6548 10.899 2.1798
374608 1 276.8346 10.899 0.0
374616 1 276.8346 10.899 4.3596
374695 1 274.6548 13.0788 0.0
374697 1 276.8346 13.0788 2.1798
374703 1 274.6548 13.0788 4.3596
374602 2 277.9245 11.9889 1.0899
374603 2 277.9245 9.8091 3.2697
376684 2 280.1043 9.8091 1.0899
376687 2 280.1043 11.9889 3.2697
376689 1 279.0144 10.899 2.1798
376691 1 281.1942 10.899 0.0
376699 1 281.1942 10.899 4.3596
376778 1 279.0144 13.0788 0.0
376780 1 281.1942 13.0788 2.1798
376786 1 279.0144 13.0788 4.3596
376685 2 282.2841 11.9889 1.0899
376686 2 282.2841 9.8091 3.2697
378765 2 284.4639 9.8091 1.0899
378766 2 286.6437 11.9889 1.0899
378767 2 286.6437 9.8091 3.2697
378768 2 284.4639 11.9889 3.2697
378770 1 283.374 10.899 2.1798
378772 1 285.5538 10.899 0.0
378780 1 285.5538 10.899 4.3596
378858 1 283.374 13.0788 0.0
378860 1 285.5538 13.0788 2.1798
378866 1 283.374 13.0788 4.3596
380841 2 288.8235 9.8091 1.0899
380842 2 291.0033 11.9889 1.0899
380843 2 291.0033 9.8091 3.2697
380844 2 288.8235 11.9889 3.2697
380846 1 287.7336 10.899 2.1798
380848 1 289.9134 10.899 0.0
380856 1 289.9134 10.899 4.3596
380935 1 287.7336 13.0788 0.0
380937 1 289.9134 13.0788 2.1798
380943 1 287.7336 13.0788 4.3596
382927 2 293.1831 9.8091 1.0899
382928 2 295.3629 11.9889 1.0899
382929 2 295.3629 9.8091 3.2697
382930 2 293.1831 11.9889 3.2697
382932 1 292.0932 10.899 2.1798
382934 1 294.273 10.899 0.0
382942 1 294.273 10.899 4.3596
383021 1 292.0932 13.0788 0.0
383023 1 294.273 13.0788 2.1798
383029 1 292.0932 13.0788 4.3596
385016 2 297.5427 9.8091 1.0899
385017 2 299.7225 11.9889 1.0899
385018 2 299.7225 9.8091 3.2697
385019 2 297.5427 11.9889 3.2697
385021 1 296.4528 10.899 2.1798
385023 1 298.6326 10.899 0.0
385031 1 298.6326 10.899 4.3596
385113 1 296.4528 13.0788 0.0
385115 1 298.6326 13.0788 2.1798
385121 1 296.4528 13.0788 4.3596
339204 2 201.6315 14.1687 1.0899
339207 2 201.6315 16.3485 3.2697
339209 1 200.5416 15.2586 2.1798
339296 2 201.6315 18.5283 1.0899
339300 1 200.5416 17.4384 0.0
339308 1 200.5416 17.4384 4.3596
339205 2 203.8113 16.3485 1.0899
339206 2 203.8113 14.1687 3.2697
339211 1 202.7214 15.2586 0.0
339219 1 202.7214 15.2586 4.3596
339298 2 203.8113 18.5283 3.2697
339302 1 202.7214 17.4384 2.1798
341301 2 205.9911 14.1687 1.0899
341304 2 205.9911 16.3485 3.2697
341306 1 204.9012 15.2586 2.1798
341390 2 205.9911 18.5283 1.0899
341394 1 204.9012 17.4384 0.0
341402 1 204.9012 17.4384 4.3596
341302 2 208.1709 16.3485 1.0899
341303 2 208.1709 14.1687 3.2697
341308 1 207.081 15.2586 0.0
341316 1 207.081 15.2586 4.3596
341392 2 208.1709 18.5283 3.2697
341396 1 207.081 17.4384 2.1798
343393 2 210.3507 14.1687 1.0899
343396 2 210.3507 16.3485 3.2697
343398 1 209.2608 15.2586 2.1798
343400 1 211.4406 15.2586 0.0
343408 1 211.4406 15.2586 4.3596
343482 2 210.3507 18.5283 1.0899
343486 1 209.2608 17.4384 0.0
343488 1 211.4406 17.4384 2.1798
343494 1 209.2608 17.4384 4.3596
343394 2 212.5305 16.3485 1.0899
343395 2 212.5305 14.1687 3.2697
343484 2 212.5305 18.5283 3.2697
345464 2 214.7103 14.1687 1.0899
345467 2 214.7103 16.3485 3.2697
345469 1 213.6204 15.2586 2.1798
345471 1 215.8002 15.2586 0.0
345479 1 215.8002 15.2586 4.3596
345555 2 214.7103 18.5283 1.0899
345559 1 213.6204 17.4384 0.0
345561 1 215.8002 17.4384 2.1798
345567 1 213.6204 17.4384 4.3596
345465 2 216.8901 16.3485 1.0899
345466 2 216.8901 14.1687 3.2697
345557 2 216.8901 18.5283 3.2697
347557 2 219.0699 14.1687 1.0899
347560 2 219.0699 16.3485 3.2697
347562 1 217.98 15.2586 2.1798
347564 1 220.1598 15.2586 0.0
347572 1 220.1598 15.2586 4.3596
347648 2 219.0699 18.5283 1.0899
347652 1 217.98 17.4384 0.0
347654 1 220.1598 17.4384 2.1798
347660 1 217.98 17.4384 4.3596
347558 2 221.2497 16.3485 1.0899
347559 2 221.2497 14.1687 3.2697
347650 2 221.2497 18.5283 3.2697
349647 2 223.4295 14.1687 1.0899
349650 2 223.4295 16.3485 3.2697
349652 1 222.3396 15.2586 2.1798
349654 1 224.5194 15.2586 0.0
349662 1 224.5194 15.2586 4.3596
349739 2 223.4295 18.5283 1.0899
349743 1 222.3396 17.4384 0.0
349745 1 224.5194 17.4384 2.1798
349751 1 222.3396 17.4384 4.3596
349648 2 225.6093 16.3485 1.0899
349649 2 225.6093 14.1687 3.2697
349741 2 225.6093 18.5283 3.2697
351732 2 227.7891 14.1687 1.0899
351733 2 229.9689 16.3485 1.0899
351734 2 229.9689 14.1687 3.2697
351735 2 227.7891 16.3485 3.2697
351737 1 226.6992 15.2586 2.1798
351739 1 228.879 15.2586 0.0
351747 1 228.879 15.2586 4.3596
351821 2 227.7891 18.5283 1.0899
351823 2 229.9689 18.5283 3.2697
351825 1 226.6992 17.4384 0.0
351827 1 228.879 17.4384 2.1798
351833 1 226.6992 17.4384 4.3596
353829 2 232.1487 14.1687 1.0899
353830 2 234.3285 16.3485 1.0899
353831 2 234.3285 14.1687 3.2697
353832 2 232.1487 16.3485 3.2697
353834 1 231.0588 15.2586 2.1798
353836 1 233.2386 15.2586 0.0
353844 1 233.2386 15.2586 4.3596
353918 2 232.1487 18.5283 1.0899
353920 2 234.3285 18.5283 3.2697
353922 1 231.0588 17.4384 0.0
353924 1 233.2386 17.4384 2.1798
353930 1 231.0588 17.4384 4.3596
355910 2 236.5083 14.1687 1.0899
355911 2 238.6881 16.3485 1.0899
355912 2 238.6881 14.1687 3.2697
355913 2 236.5083 16.3485 3.2697
355915 1 235.4184 15.2586 2.1798
355917 1 237.5982 15.2586 0.0
355925 1 237.5982 15.2586 4.3596
356001 2 236.5083 18.5283 1.0899
356003 2 238.6881 18.5283 3.2697
356005 1 235.4184 17.4384 0.0
356007 1 237.5982 17.4384 2.1798
356013 1 235.4184 17.4384 4.3596
357998 2 240.8679 14.1687 1.0899
357999 2 243.0477 16.3485 1.0899
358000 2 243.0477 14.1687 3.2697
358001 2 240.8679 16.3485 3.2697
358003 1 239.778 15.2586 2.1798
358005 1 241.9578 15.2586 0.0
358013 1 241.9578 15.2586 4.3596
358090 2 240.8679 18.5283 1.0899
358092 2 243.0477 18.5283 3.2697
358094 1 239.778 17.4384 0.0
358096 1 241.9578 17.4384 2.1798
358102 1 239.778 17.4384 4.3596
360087 1 244.1376 15.2586 2.1798
360176 1 244.1376 17.4384 0.0
360184 1 244.1376 17.4384 4.3596
360082 2 245.2275 14.1687 1.0899
360083 2 247.4073 16.3485 1.0899
360084 2 247.4073 14.1687 3.2697
360085 2 245.2275 16.3485 3.2697
360089 1 246.3174 15.2586 0.0
360097 1 246.3174 15.2586 4.3596
360172 2 245.2275 18.5283 1.0899
360174 2 247.4073 18.5283 3.2697
360178 1 246.3174 17.4384 2.1798
362183 1 248.4972 15.2586 2.1798
362272 1 248.4972 17.4384 0.0
362280 1 248.4972 17.4384 4.3596
362178 2 249.5871 14.1687 1.0899
362179 2 251.7669 16.3485 1.0899
362180 2 251.7669 14.1687 3.2697
362181 2 249.5871 16.3485 3.2697
362185 1 250.677 15.2586 0.0
362193 1 250.677 15.2586 4.3596
362268 2 249.5871 18.5283 1.0899
362270 2 251.7669 18.5283 3.2697
362274 1 250.677 17.4384 2.1798
364267 1 252.8568 15.2586 2.1798
364354 1 252.8568 17.4384 0.0
364362 1 252.8568 17.4384 4.3596
364262 2 253.9467 14.1687 1.0899
364263 2 256.1265 16.3485 1.0899
364264 2 256.1265 14.1687 3.2697
364265 2 253.9467 16.3485 3.2697
364269 1 255.0366 15.2586 0.0
364277 1 255.0366 15.2586 4.3596
364350 2 253.9467 18.5283 1.0899
364352 2 256.1265 18.5283 3.2697
364356 1 255.0366 17.4384 2.1798
366338 2 258.3063 14.1687 1.0899
366341 2 258.3063 16.3485 3.2697
366343 1 257.2164 15.2586 2.1798
366432 2 258.3063 18.5283 1.0899
366436 1 257.2164 17.4384 0.0
366444 1 257.2164 17.4384 4.3596
366339 2 260.4861 16.3485 1.0899
366340 2 260.4861 14.1687 3.2697
366345 1 259.3962 15.2586 0.0
366353 1 259.3962 15.2586 4.3596
366434 2 260.4861 18.5283 3.2697
366438 1 259.3962 17.4384 2.1798
368431 2 262.6659 14.1687 1.0899
368434 2 262.6659 16.3485 3.2697
368436 1 261.576 15.2586 2.1798
368524 2 262.6659 18.5283 1.0899
368528 1 261.576 17.4384 0.0
368536 1 261.576 17.4384 4.3596
368432 2 264.8457 16.3485 1.0899
368433 2 264.8457 14.1687 3.2697
368438 1 263.7558 15.2586 0.0
368446 1 263.7558 15.2586 4.3596
368526 2 264.8457 18.5283 3.2697
368530 1 263.7558 17.4384 2.1798
370521 2 267.0255 14.1687 1.0899
370524 2 267.0255 16.3485 3.2697
370526 1 265.9356 15.2586 2.1798
370613 2 267.0255 18.5283 1.0899
370617 1 265.9356 17.4384 0.0
370625 1 265.9356 17.4384 4.3596
370522 2 269.2053 16.3485 1.0899
370523 2 269.2053 14.1687 3.2697
370528 1 268.1154 15.2586 0.0
370536 1 268.1154 15.2586 4.3596
370615 2 269.2053 18.5283 3.2697
370619 1 268.1154 17.4384 2.1798