# LAMMPS data file written by Ovito 3.5.4
6 atoms
2 atom types
0.0 300.8124 xlo xhi
0.0 300.8124 ylo yhi
0.0 122.0688 zlo zhi

Atoms  # atomic

8299 2 149.3163 46.8657 55.5849
7009 2 147.1365 49.0455 55.5849
8401 2 149.3163 51.2253 55.5849
8402 1 148.2264 50.1354 54.495
8400 2 151.4961 49.0455 55.5849
8403 1 150.4062 47.9556 54.495
