# LAMMPS data file written by Ovito 3.5.4
74953 atoms
2 atom types
0.0 300.8124 xlo xhi
0.0 300.8124 ylo yhi
0.0 122.0688 zlo zhi

Atoms  # atomic

92699 2 90.4617 3.2697 1.0899
92700 2 90.4617 1.0899 3.2697
94782 2 92.6415 1.0899 1.0899
94785 2 92.6415 3.2697 3.2697
94786 1 91.5516 0.0 0.0
94787 1 91.5516 2.1798 2.1798
94788 1 93.7314 0.0 2.1798
94789 1 93.7314 2.1798 0.0
94794 1 91.5516 0.0 4.3596
94797 1 93.7314 2.1798 4.3596
94878 1 91.5516 4.3596 0.0
94880 1 93.7314 4.3596 2.1798
94886 1 91.5516 4.3596 4.3596
94783 2 94.8213 3.2697 1.0899
94784 2 94.8213 1.0899 3.2697
96869 2 97.0011 1.0899 1.0899
96872 2 97.0011 3.2697 3.2697
96873 1 95.9112 0.0 0.0
96874 1 95.9112 2.1798 2.1798
96875 1 98.091 0.0 2.1798
96876 1 98.091 2.1798 0.0
96881 1 95.9112 0.0 4.3596
96884 1 98.091 2.1798 4.3596
96966 1 95.9112 4.3596 0.0
96968 1 98.091 4.3596 2.1798
96974 1 95.9112 4.3596 4.3596
96870 2 99.1809 3.2697 1.0899
96871 2 99.1809 1.0899 3.2697
194951 2 101.3607 1.0899 1.0899
194954 2 101.3607 3.2697 3.2697
194955 1 100.2708 0.0 0.0
194956 1 100.2708 2.1798 2.1798
194957 1 102.4506 0.0 2.1798
194958 1 102.4506 2.1798 0.0
194963 1 100.2708 0.0 4.3596
194966 1 102.4506 2.1798 4.3596
195047 1 100.2708 4.3596 0.0
195049 1 102.4506 4.3596 2.1798
195055 1 100.2708 4.3596 4.3596
194952 2 103.5405 3.2697 1.0899
194953 2 103.5405 1.0899 3.2697
197039 2 105.7203 1.0899 1.0899
197040 2 107.9001 3.2697 1.0899
197041 2 107.9001 1.0899 3.2697
197042 2 105.7203 3.2697 3.2697
197043 1 104.6304 0.0 0.0
197044 1 104.6304 2.1798 2.1798
197045 1 106.8102 0.0 2.1798
197046 1 106.8102 2.1798 0.0
197051 1 104.6304 0.0 4.3596
197054 1 106.8102 2.1798 4.3596
197136 1 104.6304 4.3596 0.0
197138 1 106.8102 4.3596 2.1798
197144 1 104.6304 4.3596 4.3596
199138 2 110.0799 1.0899 1.0899
199139 2 112.2597 3.2697 1.0899
199140 2 112.2597 1.0899 3.2697
199141 2 110.0799 3.2697 3.2697
199142 1 108.99 0.0 0.0
199143 1 108.99 2.1798 2.1798
199144 1 111.1698 0.0 2.1798
199145 1 111.1698 2.1798 0.0
199150 1 108.99 0.0 4.3596
199153 1 111.1698 2.1798 4.3596
199233 1 108.99 4.3596 0.0
199235 1 111.1698 4.3596 2.1798
199241 1 108.99 4.3596 4.3596
201213 2 114.4395 1.0899 1.0899
201214 2 116.6193 3.2697 1.0899
201215 2 116.6193 1.0899 3.2697
201216 2 114.4395 3.2697 3.2697
201217 1 113.3496 0.0 0.0
201218 1 113.3496 2.1798 2.1798
201219 1 115.5294 0.0 2.1798
201220 1 115.5294 2.1798 0.0
201225 1 113.3496 0.0 4.3596
201228 1 115.5294 2.1798 4.3596
201307 1 113.3496 4.3596 0.0
201309 1 115.5294 4.3596 2.1798
201315 1 113.3496 4.3596 4.3596
203302 2 118.7991 1.0899 1.0899
203303 2 120.9789 3.2697 1.0899
203304 2 120.9789 1.0899 3.2697
203305 2 118.7991 3.2697 3.2697
203306 1 117.7092 0.0 0.0
203307 1 117.7092 2.1798 2.1798
203308 1 119.889 0.0 2.1798
203309 1 119.889 2.1798 0.0
203314 1 117.7092 0.0 4.3596
203317 1 119.889 2.1798 4.3596
203397 1 117.7092 4.3596 0.0
203399 1 119.889 4.3596 2.1798
203405 1 117.7092 4.3596 4.3596
205396 1 122.0688 0.0 0.0
205397 1 122.0688 2.1798 2.1798
205404 1 122.0688 0.0 4.3596
205488 1 122.0688 4.3596 0.0
205496 1 122.0688 4.3596 4.3596
205392 2 123.1587 1.0899 1.0899
205393 2 125.3385 3.2697 1.0899
205394 2 125.3385 1.0899 3.2697
205395 2 123.1587 3.2697 3.2697
205398 1 124.2486 0.0 2.1798
205399 1 124.2486 2.1798 0.0
205407 1 124.2486 2.1798 4.3596
205490 1 124.2486 4.3596 2.1798
207481 1 126.4284 0.0 0.0
207482 1 126.4284 2.1798 2.1798
207489 1 126.4284 0.0 4.3596
207575 1 126.4284 4.3596 0.0
207583 1 126.4284 4.3596 4.3596
207477 2 127.5183 1.0899 1.0899
207478 2 129.6981 3.2697 1.0899
207479 2 129.6981 1.0899 3.2697
207480 2 127.5183 3.2697 3.2697
207483 1 128.6082 0.0 2.1798
207484 1 128.6082 2.1798 0.0
207492 1 128.6082 2.1798 4.3596
207577 1 128.6082 4.3596 2.1798
209577 1 130.788 0.0 0.0
209578 1 130.788 2.1798 2.1798
209585 1 130.788 0.0 4.3596
209668 1 130.788 4.3596 0.0
209676 1 130.788 4.3596 4.3596
209573 2 131.8779 1.0899 1.0899
209574 2 134.0577 3.2697 1.0899
209575 2 134.0577 1.0899 3.2697
209576 2 131.8779 3.2697 3.2697
209579 1 132.9678 0.0 2.1798
209580 1 132.9678 2.1798 0.0
209588 1 132.9678 2.1798 4.3596
209670 1 132.9678 4.3596 2.1798
211658 2 136.2375 1.0899 1.0899
211661 2 136.2375 3.2697 3.2697
211662 1 135.1476 0.0 0.0
211663 1 135.1476 2.1798 2.1798
211670 1 135.1476 0.0 4.3596
211752 1 135.1476 4.3596 0.0
211760 1 135.1476 4.3596 4.3596
211659 2 138.4173 3.2697 1.0899
211660 2 138.4173 1.0899 3.2697
211664 1 137.3274 0.0 2.1798
211665 1 137.3274 2.1798 0.0
211673 1 137.3274 2.1798 4.3596
211754 1 137.3274 4.3596 2.1798
213738 2 140.5971 1.0899 1.0899
213741 2 140.5971 3.2697 3.2697
213742 1 139.5072 0.0 0.0
213743 1 139.5072 2.1798 2.1798
213750 1 139.5072 0.0 4.3596
213834 1 139.5072 4.3596 0.0
213842 1 139.5072 4.3596 4.3596
213739 2 142.7769 3.2697 1.0899
213740 2 142.7769 1.0899 3.2697
213744 1 141.687 0.0 2.1798
213745 1 141.687 2.1798 0.0
213753 1 141.687 2.1798 4.3596
213836 1 141.687 4.3596 2.1798
215828 2 144.9567 1.0899 1.0899
215831 2 144.9567 3.2697 3.2697
215832 1 143.8668 0.0 0.0
215833 1 143.8668 2.1798 2.1798
215840 1 143.8668 0.0 4.3596
215922 1 143.8668 4.3596 0.0
215930 1 143.8668 4.3596 4.3596
215829 2 147.1365 3.2697 1.0899
215830 2 147.1365 1.0899 3.2697
215834 1 146.0466 0.0 2.1798
215835 1 146.0466 2.1798 0.0
215843 1 146.0466 2.1798 4.3596
215924 1 146.0466 4.3596 2.1798
217926 2 149.3163 1.0899 1.0899
217929 2 149.3163 3.2697 3.2697
217930 1 148.2264 0.0 0.0
217931 1 148.2264 2.1798 2.1798
217938 1 148.2264 0.0 4.3596
218018 1 148.2264 4.3596 0.0
218026 1 148.2264 4.3596 4.3596
217927 2 151.4961 3.2697 1.0899
217928 2 151.4961 1.0899 3.2697
217932 1 150.4062 0.0 2.1798
217933 1 150.4062 2.1798 0.0
217941 1 150.4062 2.1798 4.3596
218020 1 150.4062 4.3596 2.1798
220009 2 153.6759 1.0899 1.0899
220012 2 153.6759 3.2697 3.2697
220013 1 152.586 0.0 0.0
220014 1 152.586 2.1798 2.1798
220015 1 154.7658 0.0 2.1798
220016 1 154.7658 2.1798 0.0
220021 1 152.586 0.0 4.3596
220024 1 154.7658 2.1798 4.3596
220103 1 152.586 4.3596 0.0
220105 1 154.7658 4.3596 2.1798
220111 1 152.586 4.3596 4.3596
220010 2 155.8557 3.2697 1.0899
220011 2 155.8557 1.0899 3.2697
222087 2 158.0355 1.0899 1.0899
222090 2 158.0355 3.2697 3.2697
222091 1 156.9456 0.0 0.0
222092 1 156.9456 2.1798 2.1798
222093 1 159.1254 0.0 2.1798
222094 1 159.1254 2.1798 0.0
222099 1 156.9456 0.0 4.3596
222102 1 159.1254 2.1798 4.3596
222180 1 156.9456 4.3596 0.0
222182 1 159.1254 4.3596 2.1798
222188 1 156.9456 4.3596 4.3596
222088 2 160.2153 3.2697 1.0899
222089 2 160.2153 1.0899 3.2697
224176 2 162.3951 1.0899 1.0899
224179 2 162.3951 3.2697 3.2697
224180 1 161.3052 0.0 0.0
224181 1 161.3052 2.1798 2.1798
224182 1 163.485 0.0 2.1798
224183 1 163.485 2.1798 0.0
224188 1 161.3052 0.0 4.3596
224191 1 163.485 2.1798 4.3596
224271 1 161.3052 4.3596 0.0
224273 1 163.485 4.3596 2.1798
224279 1 161.3052 4.3596 4.3596
224177 2 164.5749 3.2697 1.0899
224178 2 164.5749 1.0899 3.2697
226267 2 166.7547 1.0899 1.0899
226268 2 168.9345 3.2697 1.0899
226269 2 168.9345 1.0899 3.2697
226270 2 166.7547 3.2697 3.2697
226271 1 165.6648 0.0 0.0
226272 1 165.6648 2.1798 2.1798
226273 1 167.8446 0.0 2.1798
226274 1 167.8446 2.1798 0.0
226279 1 165.6648 0.0 4.3596
226282 1 167.8446 2.1798 4.3596
226363 1 165.6648 4.3596 0.0
226365 1 167.8446 4.3596 2.1798
226371 1 165.6648 4.3596 4.3596
228351 2 171.1143 1.0899 1.0899
228352 2 173.2941 3.2697 1.0899
228353 2 173.2941 1.0899 3.2697
228354 2 171.1143 3.2697 3.2697
228355 1 170.0244 0.0 0.0
228356 1 170.0244 2.1798 2.1798
228357 1 172.2042 0.0 2.1798
228358 1 172.2042 2.1798 0.0
228363 1 170.0244 0.0 4.3596
228366 1 172.2042 2.1798 4.3596
228446 1 170.0244 4.3596 0.0
228448 1 172.2042 4.3596 2.1798
228454 1 170.0244 4.3596 4.3596
230436 2 175.4739 1.0899 1.0899
230437 2 177.6537 3.2697 1.0899
230438 2 177.6537 1.0899 3.2697
230439 2 175.4739 3.2697 3.2697
230440 1 174.384 0.0 0.0
230441 1 174.384 2.1798 2.1798
230442 1 176.5638 0.0 2.1798
230443 1 176.5638 2.1798 0.0
230448 1 174.384 0.0 4.3596
230451 1 176.5638 2.1798 4.3596
230529 1 174.384 4.3596 0.0
230531 1 176.5638 4.3596 2.1798
230537 1 174.384 4.3596 4.3596
232519 2 179.8335 1.0899 1.0899
232520 2 182.0133 3.2697 1.0899
232521 2 182.0133 1.0899 3.2697
232522 2 179.8335 3.2697 3.2697
232523 1 178.7436 0.0 0.0
232524 1 178.7436 2.1798 2.1798
232525 1 180.9234 0.0 2.1798
232526 1 180.9234 2.1798 0.0
232531 1 178.7436 0.0 4.3596
232534 1 180.9234 2.1798 4.3596
232614 1 178.7436 4.3596 0.0
232616 1 180.9234 4.3596 2.1798
232622 1 178.7436 4.3596 4.3596
234608 1 183.1032 0.0 0.0
234609 1 183.1032 2.1798 2.1798
234616 1 183.1032 0.0 4.3596
234698 1 183.1032 4.3596 0.0
234706 1 183.1032 4.3596 4.3596
234604 2 184.1931 1.0899 1.0899
234605 2 186.3729 3.2697 1.0899
234606 2 186.3729 1.0899 3.2697
234607 2 184.1931 3.2697 3.2697
234610 1 185.283 0.0 2.1798
234611 1 185.283 2.1798 0.0
234619 1 185.283 2.1798 4.3596
234700 1 185.283 4.3596 2.1798
236684 1 187.4628 0.0 0.0
236685 1 187.4628 2.1798 2.1798
236692 1 187.4628 0.0 4.3596
236772 1 187.4628 4.3596 0.0
236780 1 187.4628 4.3596 4.3596
236680 2 188.5527 1.0899 1.0899
236681 2 190.7325 3.2697 1.0899
236682 2 190.7325 1.0899 3.2697
236683 2 188.5527 3.2697 3.2697
236686 1 189.6426 0.0 2.1798
236687 1 189.6426 2.1798 0.0
236695 1 189.6426 2.1798 4.3596
236774 1 189.6426 4.3596 2.1798
238768 1 191.8224 0.0 0.0
238769 1 191.8224 2.1798 2.1798
238776 1 191.8224 0.0 4.3596
238860 1 191.8224 4.3596 0.0
238868 1 191.8224 4.3596 4.3596
238764 2 192.9123 1.0899 1.0899
238765 2 195.0921 3.2697 1.0899
238766 2 195.0921 1.0899 3.2697
238767 2 192.9123 3.2697 3.2697
238770 1 194.0022 0.0 2.1798
238771 1 194.0022 2.1798 0.0
238779 1 194.0022 2.1798 4.3596
238862 1 194.0022 4.3596 2.1798
240851 2 197.2719 1.0899 1.0899
240854 2 197.2719 3.2697 3.2697
240855 1 196.182 0.0 0.0
240856 1 196.182 2.1798 2.1798
240863 1 196.182 0.0 4.3596
240948 1 196.182 4.3596 0.0
240956 1 196.182 4.3596 4.3596
240852 2 199.4517 3.2697 1.0899
240853 2 199.4517 1.0899 3.2697
240857 1 198.3618 0.0 2.1798
240858 1 198.3618 2.1798 0.0
240866 1 198.3618 2.1798 4.3596
240950 1 198.3618 4.3596 2.1798
92787 2 90.4617 7.6293 1.0899
92788 2 90.4617 5.4495 3.2697
94874 2 92.6415 5.4495 1.0899
94877 2 92.6415 7.6293 3.2697
94879 1 91.5516 6.5394 2.1798
94881 1 93.7314 6.5394 0.0
94889 1 93.7314 6.5394 4.3596
94967 1 91.5516 8.7192 0.0
94969 1 93.7314 8.7192 2.1798
94975 1 91.5516 8.7192 4.3596
94875 2 94.8213 7.6293 1.0899
94876 2 94.8213 5.4495 3.2697
96962 2 97.0011 5.4495 1.0899
96965 2 97.0011 7.6293 3.2697
96967 1 95.9112 6.5394 2.1798
96969 1 98.091 6.5394 0.0
96977 1 98.091 6.5394 4.3596
97056 1 95.9112 8.7192 0.0
97058 1 98.091 8.7192 2.1798
97064 1 95.9112 8.7192 4.3596
96963 2 99.1809 7.6293 1.0899
96964 2 99.1809 5.4495 3.2697
195043 2 101.3607 5.4495 1.0899
195046 2 101.3607 7.6293 3.2697
195048 1 100.2708 6.5394 2.1798
195050 1 102.4506 6.5394 0.0
195058 1 102.4506 6.5394 4.3596
195136 1 100.2708 8.7192 0.0
195138 1 102.4506 8.7192 2.1798
195144 1 100.2708 8.7192 4.3596
195044 2 103.5405 7.6293 1.0899
195045 2 103.5405 5.4495 3.2697
197132 2 105.7203 5.4495 1.0899
197133 2 107.9001 7.6293 1.0899
197134 2 107.9001 5.4495 3.2697
197135 2 105.7203 7.6293 3.2697
197137 1 104.6304 6.5394 2.1798
197139 1 106.8102 6.5394 0.0
197147 1 106.8102 6.5394 4.3596
197230 1 104.6304 8.7192 0.0
197232 1 106.8102 8.7192 2.1798
197238 1 104.6304 8.7192 4.3596
199229 2 110.0799 5.4495 1.0899
199230 2 112.2597 7.6293 1.0899
199231 2 112.2597 5.4495 3.2697
199232 2 110.0799 7.6293 3.2697
199234 1 108.99 6.5394 2.1798
199236 1 111.1698 6.5394 0.0
199244 1 111.1698 6.5394 4.3596
199322 1 108.99 8.7192 0.0
199324 1 111.1698 8.7192 2.1798
199330 1 108.99 8.7192 4.3596
201303 2 114.4395 5.4495 1.0899
201304 2 116.6193 7.6293 1.0899
201305 2 116.6193 5.4495 3.2697
201306 2 114.4395 7.6293 3.2697
201308 1 113.3496 6.5394 2.1798
201310 1 115.5294 6.5394 0.0
201318 1 115.5294 6.5394 4.3596
201397 1 113.3496 8.7192 0.0
201399 1 115.5294 8.7192 2.1798
201405 1 113.3496 8.7192 4.3596
203393 2 118.7991 5.4495 1.0899
203394 2 120.9789 7.6293 1.0899
203395 2 120.9789 5.4495 3.2697
203396 2 118.7991 7.6293 3.2697
203398 1 117.7092 6.5394 2.1798
203400 1 119.889 6.5394 0.0
203408 1 119.889 6.5394 4.3596
203487 1 117.7092 8.7192 0.0
203489 1 119.889 8.7192 2.1798
203495 1 117.7092 8.7192 4.3596
205489 1 122.0688 6.5394 2.1798
205581 1 122.0688 8.7192 0.0
205589 1 122.0688 8.7192 4.3596
205484 2 123.1587 5.4495 1.0899
205485 2 125.3385 7.6293 1.0899
205486 2 125.3385 5.4495 3.2697
205487 2 123.1587 7.6293 3.2697
205491 1 124.2486 6.5394 0.0
205499 1 124.2486 6.5394 4.3596
205583 1 124.2486 8.7192 2.1798
207576 1 126.4284 6.5394 2.1798
207664 1 126.4284 8.7192 0.0
207672 1 126.4284 8.7192 4.3596
207571 2 127.5183 5.4495 1.0899
207572 2 129.6981 7.6293 1.0899
207573 2 129.6981 5.4495 3.2697
207574 2 127.5183 7.6293 3.2697
207578 1 128.6082 6.5394 0.0
207586 1 128.6082 6.5394 4.3596
207666 1 128.6082 8.7192 2.1798
209669 1 130.788 6.5394 2.1798
209760 1 130.788 8.7192 0.0
209768 1 130.788 8.7192 4.3596
209664 2 131.8779 5.4495 1.0899
209665 2 134.0577 7.6293 1.0899
209666 2 134.0577 5.4495 3.2697
209667 2 131.8779 7.6293 3.2697
209671 1 132.9678 6.5394 0.0
209679 1 132.9678 6.5394 4.3596
209762 1 132.9678 8.7192 2.1798
211748 2 136.2375 5.4495 1.0899
211751 2 136.2375 7.6293 3.2697
211753 1 135.1476 6.5394 2.1798
211841 1 135.1476 8.7192 0.0
211849 1 135.1476 8.7192 4.3596
211749 2 138.4173 7.6293 1.0899
211750 2 138.4173 5.4495 3.2697
211755 1 137.3274 6.5394 0.0
211763 1 137.3274 6.5394 4.3596
211843 1 137.3274 8.7192 2.1798
213830 2 140.5971 5.4495 1.0899
213833 2 140.5971 7.6293 3.2697
213835 1 139.5072 6.5394 2.1798
213926 1 139.5072 8.7192 0.0
213934 1 139.5072 8.7192 4.3596
213831 2 142.7769 7.6293 1.0899
213832 2 142.7769 5.4495 3.2697
213837 1 141.687 6.5394 0.0
213845 1 141.687 6.5394 4.3596
213928 1 141.687 8.7192 2.1798
215918 2 144.9567 5.4495 1.0899
215921 2 144.9567 7.6293 3.2697
215923 1 143.8668 6.5394 2.1798
216012 1 143.8668 8.7192 0.0
216020 1 143.8668 8.7192 4.3596
215919 2 147.1365 7.6293 1.0899
215920 2 147.1365 5.4495 3.2697
215925 1 146.0466 6.5394 0.0
215933 1 146.0466 6.5394 4.3596
216014 1 146.0466 8.7192 2.1798
218014 2 149.3163 5.4495 1.0899
218017 2 149.3163 7.6293 3.2697
218019 1 148.2264 6.5394 2.1798
218108 1 148.2264 8.7192 0.0
218116 1 148.2264 8.7192 4.3596
218015 2 151.4961 7.6293 1.0899
218016 2 151.4961 5.4495 3.2697
218021 1 150.4062 6.5394 0.0
218029 1 150.4062 6.5394 4.3596
218110 1 150.4062 8.7192 2.1798
220099 2 153.6759 5.4495 1.0899
220102 2 153.6759 7.6293 3.2697
220104 1 152.586 6.5394 2.1798
220106 1 154.7658 6.5394 0.0
220114 1 154.7658 6.5394 4.3596
220193 1 152.586 8.7192 0.0
220195 1 154.7658 8.7192 2.1798
220201 1 152.586 8.7192 4.3596
220100 2 155.8557 7.6293 1.0899
220101 2 155.8557 5.4495 3.2697
222176 2 158.0355 5.4495 1.0899
222179 2 158.0355 7.6293 3.2697
222181 1 156.9456 6.5394 2.1798
222183 1 159.1254 6.5394 0.0
222191 1 159.1254 6.5394 4.3596
222269 1 156.9456 8.7192 0.0
222271 1 159.1254 8.7192 2.1798
222277 1 156.9456 8.7192 4.3596
222177 2 160.2153 7.6293 1.0899
222178 2 160.2153 5.4495 3.2697
224267 2 162.3951 5.4495 1.0899
224270 2 162.3951 7.6293 3.2697
224272 1 161.3052 6.5394 2.1798
224274 1 163.485 6.5394 0.0
224282 1 163.485 6.5394 4.3596
224362 1 161.3052 8.7192 0.0
224364 1 163.485 8.7192 2.1798
224370 1 161.3052 8.7192 4.3596
224268 2 164.5749 7.6293 1.0899
224269 2 164.5749 5.4495 3.2697
226359 2 166.7547 5.4495 1.0899
226360 2 168.9345 7.6293 1.0899
226361 2 168.9345 5.4495 3.2697
226362 2 166.7547 7.6293 3.2697
226364 1 165.6648 6.5394 2.1798
226366 1 167.8446 6.5394 0.0
226374 1 167.8446 6.5394 4.3596
226452 1 165.6648 8.7192 0.0
226454 1 167.8446 8.7192 2.1798
226460 1 165.6648 8.7192 4.3596
228442 2 171.1143 5.4495 1.0899
228443 2 173.2941 7.6293 1.0899
228444 2 173.2941 5.4495 3.2697
228445 2 171.1143 7.6293 3.2697
228447 1 170.0244 6.5394 2.1798
228449 1 172.2042 6.5394 0.0
228457 1 172.2042 6.5394 4.3596
228534 1 170.0244 8.7192 0.0
228536 1 172.2042 8.7192 2.1798
228542 1 170.0244 8.7192 4.3596
230525 2 175.4739 5.4495 1.0899
230526 2 177.6537 7.6293 1.0899
230527 2 177.6537 5.4495 3.2697
230528 2 175.4739 7.6293 3.2697
230530 1 174.384 6.5394 2.1798
230532 1 176.5638 6.5394 0.0
230540 1 176.5638 6.5394 4.3596
230623 1 174.384 8.7192 0.0
230625 1 176.5638 8.7192 2.1798
230631 1 174.384 8.7192 4.3596
232610 2 179.8335 5.4495 1.0899
232611 2 182.0133 7.6293 1.0899
232612 2 182.0133 5.4495 3.2697
232613 2 179.8335 7.6293 3.2697
232615 1 178.7436 6.5394 2.1798
232617 1 180.9234 6.5394 0.0
232625 1 180.9234 6.5394 4.3596
232706 1 178.7436 8.7192 0.0
232708 1 180.9234 8.7192 2.1798
232714 1 178.7436 8.7192 4.3596
234699 1 183.1032 6.5394 2.1798
234787 1 183.1032 8.7192 0.0
234795 1 183.1032 8.7192 4.3596
234694 2 184.1931 5.4495 1.0899
234695 2 186.3729 7.6293 1.0899
234696 2 186.3729 5.4495 3.2697
234697 2 184.1931 7.6293 3.2697
234701 1 185.283 6.5394 0.0
234709 1 185.283 6.5394 4.3596
234789 1 185.283 8.7192 2.1798
236773 1 187.4628 6.5394 2.1798
236863 1 187.4628 8.7192 0.0
236871 1 187.4628 8.7192 4.3596
236768 2 188.5527 5.4495 1.0899
236769 2 190.7325 7.6293 1.0899
236770 2 190.7325 5.4495 3.2697
236771 2 188.5527 7.6293 3.2697
236775 1 189.6426 6.5394 0.0
236783 1 189.6426 6.5394 4.3596
236865 1 189.6426 8.7192 2.1798
238861 1 191.8224 6.5394 2.1798
238949 1 191.8224 8.7192 0.0
238957 1 191.8224 8.7192 4.3596
238856 2 192.9123 5.4495 1.0899
238857 2 195.0921 7.6293 1.0899
238858 2 195.0921 5.4495 3.2697
238859 2 192.9123 7.6293 3.2697
238863 1 194.0022 6.5394 0.0
238871 1 194.0022 6.5394 4.3596
238951 1 194.0022 8.7192 2.1798
240944 2 197.2719 5.4495 1.0899
240947 2 197.2719 7.6293 3.2697
240949 1 196.182 6.5394 2.1798
241038 1 196.182 8.7192 0.0
241046 1 196.182 8.7192 4.3596
240945 2 199.4517 7.6293 1.0899
240946 2 199.4517 5.4495 3.2697
240951 1 198.3618 6.5394 0.0
240959 1 198.3618 6.5394 4.3596
241040 1 198.3618 8.7192 2.1798
92878 2 90.4617 11.9889 1.0899
92879 2 90.4617 9.8091 3.2697
94963 2 92.6415 9.8091 1.0899
94966 2 92.6415 11.9889 3.2697
94968 1 91.5516 10.899 2.1798
94970 1 93.7314 10.899 0.0
94978 1 93.7314 10.899 4.3596
95057 1 91.5516 13.0788 0.0
95059 1 93.7314 13.0788 2.1798
95065 1 91.5516 13.0788 4.3596
94964 2 94.8213 11.9889 1.0899
94965 2 94.8213 9.8091 3.2697
97052 2 97.0011 9.8091 1.0899
97055 2 97.0011 11.9889 3.2697
97057 1 95.9112 10.899 2.1798
97059 1 98.091 10.899 0.0
97067 1 98.091 10.899 4.3596
97149 1 95.9112 13.0788 0.0
97151 1 98.091 13.0788 2.1798
97157 1 95.9112 13.0788 4.3596
97053 2 99.1809 11.9889 1.0899
97054 2 99.1809 9.8091 3.2697
195132 2 101.3607 9.8091 1.0899
195135 2 101.3607 11.9889 3.2697
195137 1 100.2708 10.899 2.1798
195139 1 102.4506 10.899 0.0
195147 1 102.4506 10.899 4.3596
195226 1 100.2708 13.0788 0.0
195228 1 102.4506 13.0788 2.1798
195234 1 100.2708 13.0788 4.3596
195133 2 103.5405 11.9889 1.0899
195134 2 103.5405 9.8091 3.2697
197226 2 105.7203 9.8091 1.0899
197227 2 107.9001 11.9889 1.0899
197228 2 107.9001 9.8091 3.2697
197229 2 105.7203 11.9889 3.2697
197231 1 104.6304 10.899 2.1798
197233 1 106.8102 10.899 0.0
197241 1 106.8102 10.899 4.3596
197323 1 104.6304 13.0788 0.0
197325 1 106.8102 13.0788 2.1798
197331 1 104.6304 13.0788 4.3596
199318 2 110.0799 9.8091 1.0899
199319 2 112.2597 11.9889 1.0899
199320 2 112.2597 9.8091 3.2697
199321 2 110.0799 11.9889 3.2697
199323 1 108.99 10.899 2.1798
199325 1 111.1698 10.899 0.0
199333 1 111.1698 10.899 4.3596
199415 1 108.99 13.0788 0.0
199417 1 111.1698 13.0788 2.1798
199423 1 108.99 13.0788 4.3596
201393 2 114.4395 9.8091 1.0899
201394 2 116.6193 11.9889 1.0899
201395 2 116.6193 9.8091 3.2697
201396 2 114.4395 11.9889 3.2697
201398 1 113.3496 10.899 2.1798
201400 1 115.5294 10.899 0.0
201408 1 115.5294 10.899 4.3596
201486 1 113.3496 13.0788 0.0
201488 1 115.5294 13.0788 2.1798
201494 1 113.3496 13.0788 4.3596
203483 2 118.7991 9.8091 1.0899
203484 2 120.9789 11.9889 1.0899
203485 2 120.9789 9.8091 3.2697
203486 2 118.7991 11.9889 3.2697
203488 1 117.7092 10.899 2.1798
203490 1 119.889 10.899 0.0
203498 1 119.889 10.899 4.3596
203579 1 117.7092 13.0788 0.0
203581 1 119.889 13.0788 2.1798
203587 1 117.7092 13.0788 4.3596
205582 1 122.0688 10.899 2.1798
205669 1 122.0688 13.0788 0.0
205677 1 122.0688 13.0788 4.3596
205577 2 123.1587 9.8091 1.0899
205578 2 125.3385 11.9889 1.0899
205579 2 125.3385 9.8091 3.2697
205580 2 123.1587 11.9889 3.2697
205584 1 124.2486 10.899 0.0
205592 1 124.2486 10.899 4.3596
205671 1 124.2486 13.0788 2.1798
207665 1 126.4284 10.899 2.1798
207754 1 126.4284 13.0788 0.0
207762 1 126.4284 13.0788 4.3596
207660 2 127.5183 9.8091 1.0899
207661 2 129.6981 11.9889 1.0899
207662 2 129.6981 9.8091 3.2697
207663 2 127.5183 11.9889 3.2697
207667 1 128.6082 10.899 0.0
207675 1 128.6082 10.899 4.3596
207756 1 128.6082 13.0788 2.1798
209761 1 130.788 10.899 2.1798
209851 1 130.788 13.0788 0.0
209859 1 130.788 13.0788 4.3596
209756 2 131.8779 9.8091 1.0899
209757 2 134.0577 11.9889 1.0899
209758 2 134.0577 9.8091 3.2697
209759 2 131.8779 11.9889 3.2697
209763 1 132.9678 10.899 0.0
209771 1 132.9678 10.899 4.3596
209853 1 132.9678 13.0788 2.1798
211837 2 136.2375 9.8091 1.0899
211840 2 136.2375 11.9889 3.2697
211842 1 135.1476 10.899 2.1798
211932 1 135.1476 13.0788 0.0
211940 1 135.1476 13.0788 4.3596
211838 2 138.4173 11.9889 1.0899
211839 2 138.4173 9.8091 3.2697
211844 1 137.3274 10.899 0.0
211852 1 137.3274 10.899 4.3596
211934 1 137.3274 13.0788 2.1798
213922 2 140.5971 9.8091 1.0899
213925 2 140.5971 11.9889 3.2697
213927 1 139.5072 10.899 2.1798
214020 1 139.5072 13.0788 0.0
214028 1 139.5072 13.0788 4.3596
213923 2 142.7769 11.9889 1.0899
213924 2 142.7769 9.8091 3.2697
213929 1 141.687 10.899 0.0
213937 1 141.687 10.899 4.3596
214022 1 141.687 13.0788 2.1798
216008 2 144.9567 9.8091 1.0899
216011 2 144.9567 11.9889 3.2697
216013 1 143.8668 10.899 2.1798
216104 1 143.8668 13.0788 0.0
216112 1 143.8668 13.0788 4.3596
216009 2 147.1365 11.9889 1.0899
216010 2 147.1365 9.8091 3.2697
216015 1 146.0466 10.899 0.0
216023 1 146.0466 10.899 4.3596
216106 1 146.0466 13.0788 2.1798
218104 2 149.3163 9.8091 1.0899
218107 2 149.3163 11.9889 3.2697
218109 1 148.2264 10.899 2.1798
218200 1 148.2264 13.0788 0.0
218208 1 148.2264 13.0788 4.3596
218105 2 151.4961 11.9889 1.0899
218106 2 151.4961 9.8091 3.2697
218111 1 150.4062 10.899 0.0
218119 1 150.4062 10.899 4.3596
218202 1 150.4062 13.0788 2.1798
220189 2 153.6759 9.8091 1.0899
220192 2 153.6759 11.9889 3.2697
220194 1 152.586 10.899 2.1798
220196 1 154.7658 10.899 0.0
220204 1 154.7658 10.899 4.3596
220284 1 152.586 13.0788 0.0
220286 1 154.7658 13.0788 2.1798
220292 1 152.586 13.0788 4.3596
220190 2 155.8557 11.9889 1.0899
220191 2 155.8557 9.8091 3.2697
222265 2 158.0355 9.8091 1.0899
222268 2 158.0355 11.9889 3.2697
222270 1 156.9456 10.899 2.1798
222272 1 159.1254 10.899 0.0
222280 1 159.1254 10.899 4.3596
222360 1 156.9456 13.0788 0.0
222362 1 159.1254 13.0788 2.1798
222368 1 156.9456 13.0788 4.3596
222266 2 160.2153 11.9889 1.0899
222267 2 160.2153 9.8091 3.2697
224358 2 162.3951 9.8091 1.0899
224361 2 162.3951 11.9889 3.2697
224363 1 161.3052 10.899 2.1798
224365 1 163.485 10.899 0.0
224373 1 163.485 10.899 4.3596
224453 1 161.3052 13.0788 0.0
224455 1 163.485 13.0788 2.1798
224461 1 161.3052 13.0788 4.3596
224359 2 164.5749 11.9889 1.0899
224360 2 164.5749 9.8091 3.2697
226448 2 166.7547 9.8091 1.0899
226449 2 168.9345 11.9889 1.0899
226450 2 168.9345 9.8091 3.2697
226451 2 166.7547 11.9889 3.2697
226453 1 165.6648 10.899 2.1798
226455 1 167.8446 10.899 0.0
226463 1 167.8446 10.899 4.3596
226543 1 165.6648 13.0788 0.0
226545 1 167.8446 13.0788 2.1798
226551 1 165.6648 13.0788 4.3596
228530 2 171.1143 9.8091 1.0899
228531 2 173.2941 11.9889 1.0899
228532 2 173.2941 9.8091 3.2697
228533 2 171.1143 11.9889 3.2697
228535 1 170.0244 10.899 2.1798
228537 1 172.2042 10.899 0.0
228545 1 172.2042 10.899 4.3596
228624 1 170.0244 13.0788 0.0
228626 1 172.2042 13.0788 2.1798
228632 1 170.0244 13.0788 4.3596
230619 2 175.4739 9.8091 1.0899
230620 2 177.6537 11.9889 1.0899
230621 2 177.6537 9.8091 3.2697
230622 2 175.4739 11.9889 3.2697
230624 1 174.384 10.899 2.1798
230626 1 176.5638 10.899 0.0
230634 1 176.5638 10.899 4.3596
230713 1 174.384 13.0788 0.0
230715 1 176.5638 13.0788 2.1798
230721 1 174.384 13.0788 4.3596
232702 2 179.8335 9.8091 1.0899
232703 2 182.0133 11.9889 1.0899
232704 2 182.0133 9.8091 3.2697
232705 2 179.8335 11.9889 3.2697
232707 1 178.7436 10.899 2.1798
232709 1 180.9234 10.899 0.0
232717 1 180.9234 10.899 4.3596
232796 1 178.7436 13.0788 0.0
232798 1 180.9234 13.0788 2.1798
232804 1 178.7436 13.0788 4.3596
234788 1 183.1032 10.899 2.1798
234876 1 183.1032 13.0788 0.0
234884 1 183.1032 13.0788 4.3596
234783 2 184.1931 9.8091 1.0899
234784 2 186.3729 11.9889 1.0899
234785 2 186.3729 9.8091 3.2697
234786 2 184.1931 11.9889 3.2697
234790 1 185.283 10.899 0.0
234798 1 185.283 10.899 4.3596
234878 1 185.283 13.0788 2.1798
236864 1 187.4628 10.899 2.1798
236953 1 187.4628 13.0788 0.0
236961 1 187.4628 13.0788 4.3596
236859 2 188.5527 9.8091 1.0899
236860 2 190.7325 11.9889 1.0899
236861 2 190.7325 9.8091 3.2697
236862 2 188.5527 11.9889 3.2697
236866 1 189.6426 10.899 0.0
236874 1 189.6426 10.899 4.3596
236955 1 189.6426 13.0788 2.1798
238950 1 191.8224 10.899 2.1798
239039 1 191.8224 13.0788 0.0
239047 1 191.8224 13.0788 4.3596
238945 2 192.9123 9.8091 1.0899
238946 2 195.0921 11.9889 1.0899
238947 2 195.0921 9.8091 3.2697
238948 2 192.9123 11.9889 3.2697
238952 1 194.0022 10.899 0.0
238960 1 194.0022 10.899 4.3596
239041 1 194.0022 13.0788 2.1798
241034 2 197.2719 9.8091 1.0899
241037 2 197.2719 11.9889 3.2697
241039 1 196.182 10.899 2.1798
241131 1 196.182 13.0788 0.0
241139 1 196.182 13.0788 4.3596
241035 2 199.4517 11.9889 1.0899
241036 2 199.4517 9.8091 3.2697
241041 1 198.3618 10.899 0.0
241049 1 198.3618 10.899 4.3596
241133 1 198.3618 13.0788 2.1798
92968 2 90.4617 16.3485 1.0899
92969 2 90.4617 14.1687 3.2697
93061 2 90.4617 18.5283 3.2697
95053 2 92.6415 14.1687 1.0899
95056 2 92.6415 16.3485 3.2697
95058 1 91.5516 15.2586 2.1798
95060 1 93.7314 15.2586 0.0
95068 1 93.7314 15.2586 4.3596
95144 2 92.6415 18.5283 1.0899
95148 1 91.5516 17.4384 0.0
95150 1 93.7314 17.4384 2.1798
95156 1 91.5516 17.4384 4.3596
95054 2 94.8213 16.3485 1.0899
95055 2 94.8213 14.1687 3.2697
95146 2 94.8213 18.5283 3.2697
97145 2 97.0011 14.1687 1.0899
97148 2 97.0011 16.3485 3.2697
97150 1 95.9112 15.2586 2.1798
97152 1 98.091 15.2586 0.0
97160 1 98.091 15.2586 4.3596
97233 2 97.0011 18.5283 1.0899
97237 1 95.9112 17.4384 0.0
97239 1 98.091 17.4384 2.1798
97245 1 95.9112 17.4384 4.3596
97146 2 99.1809 16.3485 1.0899
97147 2 99.1809 14.1687 3.2697
97235 2 99.1809 18.5283 3.2697
195222 2 101.3607 14.1687 1.0899
195225 2 101.3607 16.3485 3.2697
195227 1 100.2708 15.2586 2.1798
195229 1 102.4506 15.2586 0.0
195237 1 102.4506 15.2586 4.3596
195314 2 101.3607 18.5283 1.0899
195318 1 100.2708 17.4384 0.0
195320 1 102.4506 17.4384 2.1798
195326 1 100.2708 17.4384 4.3596
195223 2 103.5405 16.3485 1.0899
195224 2 103.5405 14.1687 3.2697
195316 2 103.5405 18.5283 3.2697
197319 2 105.7203 14.1687 1.0899
197320 2 107.9001 16.3485 1.0899
197321 2 107.9001 14.1687 3.2697
197322 2 105.7203 16.3485 3.2697
197324 1 104.6304 15.2586 2.1798
197326 1 106.8102 15.2586 0.0
197334 1 106.8102 15.2586 4.3596
197408 2 105.7203 18.5283 1.0899
197410 2 107.9001 18.5283 3.2697
197412 1 104.6304 17.4384 0.0
197414 1 106.8102 17.4384 2.1798
197420 1 104.6304 17.4384 4.3596
199411 2 110.0799 14.1687 1.0899
199412 2 112.2597 16.3485 1.0899
199413 2 112.2597 14.1687 3.2697
199414 2 110.0799 16.3485 3.2697
199416 1 108.99 15.2586 2.1798
199418 1 111.1698 15.2586 0.0
199426 1 111.1698 15.2586 4.3596
199500 2 110.0799 18.5283 1.0899
199502 2 112.2597 18.5283 3.2697
199504 1 108.99 17.4384 0.0
199506 1 111.1698 17.4384 2.1798
199512 1 108.99 17.4384 4.3596
201482 2 114.4395 14.1687 1.0899
201483 2 116.6193 16.3485 1.0899
201484 2 116.6193 14.1687 3.2697
201485 2 114.4395 16.3485 3.2697
201487 1 113.3496 15.2586 2.1798
201489 1 115.5294 15.2586 0.0
201497 1 115.5294 15.2586 4.3596
201573 2 114.4395 18.5283 1.0899
201575 2 116.6193 18.5283 3.2697
201577 1 113.3496 17.4384 0.0
201579 1 115.5294 17.4384 2.1798
201585 1 113.3496 17.4384 4.3596
203575 2 118.7991 14.1687 1.0899
203576 2 120.9789 16.3485 1.0899
203577 2 120.9789 14.1687 3.2697
203578 2 118.7991 16.3485 3.2697
203580 1 117.7092 15.2586 2.1798
203582 1 119.889 15.2586 0.0
203590 1 119.889 15.2586 4.3596
203666 2 118.7991 18.5283 1.0899
203668 2 120.9789 18.5283 3.2697
203670 1 117.7092 17.4384 0.0
203672 1 119.889 17.4384 2.1798
203678 1 117.7092 17.4384 4.3596
205670 1 122.0688 15.2586 2.1798
205761 1 122.0688 17.4384 0.0
205769 1 122.0688 17.4384 4.3596
205665 2 123.1587 14.1687 1.0899
205666 2 125.3385 16.3485 1.0899
205667 2 125.3385 14.1687 3.2697
205668 2 123.1587 16.3485 3.2697
205672 1 124.2486 15.2586 0.0
205680 1 124.2486 15.2586 4.3596
205757 2 123.1587 18.5283 1.0899
205759 2 125.3385 18.5283 3.2697
205763 1 124.2486 17.4384 2.1798
207755 1 126.4284 15.2586 2.1798
207843 1 126.4284 17.4384 0.0
207851 1 126.4284 17.4384 4.3596
207750 2 127.5183 14.1687 1.0899
207751 2 129.6981 16.3485 1.0899
207752 2 129.6981 14.1687 3.2697
207753 2 127.5183 16.3485 3.2697
207757 1 128.6082 15.2586 0.0
207765 1 128.6082 15.2586 4.3596
207839 2 127.5183 18.5283 1.0899
207841 2 129.6981 18.5283 3.2697
207845 1 128.6082 17.4384 2.1798
209852 1 130.788 15.2586 2.1798
209940 1 130.788 17.4384 0.0
209948 1 130.788 17.4384 4.3596
209847 2 131.8779 14.1687 1.0899
209848 2 134.0577 16.3485 1.0899
209849 2 134.0577 14.1687 3.2697
209850 2 131.8779 16.3485 3.2697
209854 1 132.9678 15.2586 0.0
209862 1 132.9678 15.2586 4.3596
209936 2 131.8779 18.5283 1.0899
209938 2 134.0577 18.5283 3.2697
209942 1 132.9678 17.4384 2.1798
211928 2 136.2375 14.1687 1.0899
211931 2 136.2375 16.3485 3.2697
211933 1 135.1476 15.2586 2.1798
212019 2 136.2375 18.5283 1.0899
212023 1 135.1476 17.4384 0.0
212031 1 135.1476 17.4384 4.3596