# LAMMPS data file written by Ovito 3.5.4
73707 atoms
2 atom types
0.0 300.8124 xlo xhi
0.0 300.8124 ylo yhi
0.0 122.0688 zlo zhi

Atoms  # atomic

140694 2 90.4617 101.3607 3.2697
142776 2 92.6415 101.3607 1.0899
142781 1 91.5516 102.4506 2.1798
142783 1 93.7314 102.4506 0.0
142791 1 93.7314 102.4506 4.3596
142778 2 94.8213 101.3607 3.2697
144863 2 97.0011 101.3607 1.0899
144868 1 95.9112 102.4506 2.1798
144870 1 98.091 102.4506 0.0
144878 1 98.091 102.4506 4.3596
144865 2 99.1809 101.3607 3.2697
242945 2 101.3607 101.3607 1.0899
242950 1 100.2708 102.4506 2.1798
242952 1 102.4506 102.4506 0.0
242960 1 102.4506 102.4506 4.3596
242947 2 103.5405 101.3607 3.2697
245033 2 105.7203 101.3607 1.0899
245035 2 107.9001 101.3607 3.2697
245038 1 104.6304 102.4506 2.1798
245040 1 106.8102 102.4506 0.0
245048 1 106.8102 102.4506 4.3596
247132 2 110.0799 101.3607 1.0899
247134 2 112.2597 101.3607 3.2697
247137 1 108.99 102.4506 2.1798
247139 1 111.1698 102.4506 0.0
247147 1 111.1698 102.4506 4.3596
249207 2 114.4395 101.3607 1.0899
249209 2 116.6193 101.3607 3.2697
249212 1 113.3496 102.4506 2.1798
249214 1 115.5294 102.4506 0.0
249222 1 115.5294 102.4506 4.3596
251296 2 118.7991 101.3607 1.0899
251298 2 120.9789 101.3607 3.2697
251301 1 117.7092 102.4506 2.1798
251303 1 119.889 102.4506 0.0
251311 1 119.889 102.4506 4.3596
253391 1 122.0688 102.4506 2.1798
253386 2 123.1587 101.3607 1.0899
253388 2 125.3385 101.3607 3.2697
253393 1 124.2486 102.4506 0.0
253401 1 124.2486 102.4506 4.3596
255476 1 126.4284 102.4506 2.1798
255471 2 127.5183 101.3607 1.0899
255473 2 129.6981 101.3607 3.2697
255478 1 128.6082 102.4506 0.0
255486 1 128.6082 102.4506 4.3596
257572 1 130.788 102.4506 2.1798
257567 2 131.8779 101.3607 1.0899
257569 2 134.0577 101.3607 3.2697
257574 1 132.9678 102.4506 0.0
257582 1 132.9678 102.4506 4.3596
259652 2 136.2375 101.3607 1.0899
259657 1 135.1476 102.4506 2.1798
259654 2 138.4173 101.3607 3.2697
259659 1 137.3274 102.4506 0.0
259667 1 137.3274 102.4506 4.3596
261732 2 140.5971 101.3607 1.0899
261737 1 139.5072 102.4506 2.1798
261734 2 142.7769 101.3607 3.2697
261739 1 141.687 102.4506 0.0
261747 1 141.687 102.4506 4.3596
263822 2 144.9567 101.3607 1.0899
263827 1 143.8668 102.4506 2.1798
263824 2 147.1365 101.3607 3.2697
263829 1 146.0466 102.4506 0.0
263837 1 146.0466 102.4506 4.3596
265920 2 149.3163 101.3607 1.0899
265925 1 148.2264 102.4506 2.1798
265922 2 151.4961 101.3607 3.2697
265927 1 150.4062 102.4506 0.0
265935 1 150.4062 102.4506 4.3596
268003 2 153.6759 101.3607 1.0899
268008 1 152.586 102.4506 2.1798
268010 1 154.7658 102.4506 0.0
268018 1 154.7658 102.4506 4.3596
268005 2 155.8557 101.3607 3.2697
270081 2 158.0355 101.3607 1.0899
270086 1 156.9456 102.4506 2.1798
270088 1 159.1254 102.4506 0.0
270096 1 159.1254 102.4506 4.3596
270083 2 160.2153 101.3607 3.2697
272170 2 162.3951 101.3607 1.0899
272175 1 161.3052 102.4506 2.1798
272177 1 163.485 102.4506 0.0
272185 1 163.485 102.4506 4.3596
272172 2 164.5749 101.3607 3.2697
274261 2 166.7547 101.3607 1.0899
274263 2 168.9345 101.3607 3.2697
274266 1 165.6648 102.4506 2.1798
274268 1 167.8446 102.4506 0.0
274276 1 167.8446 102.4506 4.3596
276345 2 171.1143 101.3607 1.0899
276347 2 173.2941 101.3607 3.2697
276350 1 170.0244 102.4506 2.1798
276352 1 172.2042 102.4506 0.0
276360 1 172.2042 102.4506 4.3596
278430 2 175.4739 101.3607 1.0899
278432 2 177.6537 101.3607 3.2697
278435 1 174.384 102.4506 2.1798
278437 1 176.5638 102.4506 0.0
278445 1 176.5638 102.4506 4.3596
280513 2 179.8335 101.3607 1.0899
280515 2 182.0133 101.3607 3.2697
280518 1 178.7436 102.4506 2.1798
280520 1 180.9234 102.4506 0.0
280528 1 180.9234 102.4506 4.3596
282603 1 183.1032 102.4506 2.1798
282598 2 184.1931 101.3607 1.0899
282600 2 186.3729 101.3607 3.2697
282605 1 185.283 102.4506 0.0
282613 1 185.283 102.4506 4.3596
284679 1 187.4628 102.4506 2.1798
284674 2 188.5527 101.3607 1.0899
284676 2 190.7325 101.3607 3.2697
284681 1 189.6426 102.4506 0.0
284689 1 189.6426 102.4506 4.3596
286763 1 191.8224 102.4506 2.1798
286758 2 192.9123 101.3607 1.0899
286760 2 195.0921 101.3607 3.2697
286765 1 194.0022 102.4506 0.0
286773 1 194.0022 102.4506 4.3596
288845 2 197.2719 101.3607 1.0899
288850 1 196.182 102.4506 2.1798
288847 2 199.4517 101.3607 3.2697
288852 1 198.3618 102.4506 0.0
288860 1 198.3618 102.4506 4.3596
140693 2 90.4617 103.5405 1.0899
140781 2 90.4617 107.9001 1.0899
140782 2 90.4617 105.7203 3.2697
142779 2 92.6415 103.5405 3.2697
142868 2 92.6415 105.7203 1.0899
142871 2 92.6415 107.9001 3.2697
142872 1 91.5516 104.6304 0.0
142873 1 91.5516 106.8102 2.1798
142874 1 93.7314 104.6304 2.1798
142875 1 93.7314 106.8102 0.0
142880 1 91.5516 104.6304 4.3596
142883 1 93.7314 106.8102 4.3596
142777 2 94.8213 103.5405 1.0899
142869 2 94.8213 107.9001 1.0899
142870 2 94.8213 105.7203 3.2697
144866 2 97.0011 103.5405 3.2697
144956 2 97.0011 105.7203 1.0899
144959 2 97.0011 107.9001 3.2697
144960 1 95.9112 104.6304 0.0
144961 1 95.9112 106.8102 2.1798
144962 1 98.091 104.6304 2.1798
144963 1 98.091 106.8102 0.0
144968 1 95.9112 104.6304 4.3596
144971 1 98.091 106.8102 4.3596
144864 2 99.1809 103.5405 1.0899
144957 2 99.1809 107.9001 1.0899
144958 2 99.1809 105.7203 3.2697
242948 2 101.3607 103.5405 3.2697
243037 2 101.3607 105.7203 1.0899
243040 2 101.3607 107.9001 3.2697
243041 1 100.2708 104.6304 0.0
243042 1 100.2708 106.8102 2.1798
243043 1 102.4506 104.6304 2.1798
243044 1 102.4506 106.8102 0.0
243049 1 100.2708 104.6304 4.3596
243052 1 102.4506 106.8102 4.3596
242946 2 103.5405 103.5405 1.0899
243038 2 103.5405 107.9001 1.0899
243039 2 103.5405 105.7203 3.2697
245034 2 107.9001 103.5405 1.0899
245036 2 105.7203 103.5405 3.2697
245126 2 105.7203 105.7203 1.0899
245127 2 107.9001 107.9001 1.0899
245128 2 107.9001 105.7203 3.2697
245129 2 105.7203 107.9001 3.2697
245130 1 104.6304 104.6304 0.0
245131 1 104.6304 106.8102 2.1798
245132 1 106.8102 104.6304 2.1798
245133 1 106.8102 106.8102 0.0
245138 1 104.6304 104.6304 4.3596
245141 1 106.8102 106.8102 4.3596
247133 2 112.2597 103.5405 1.0899
247135 2 110.0799 103.5405 3.2697
247223 2 110.0799 105.7203 1.0899
247224 2 112.2597 107.9001 1.0899
247225 2 112.2597 105.7203 3.2697
247226 2 110.0799 107.9001 3.2697
247227 1 108.99 104.6304 0.0
247228 1 108.99 106.8102 2.1798
247229 1 111.1698 104.6304 2.1798
247230 1 111.1698 106.8102 0.0
247235 1 108.99 104.6304 4.3596
247238 1 111.1698 106.8102 4.3596
249208 2 116.6193 103.5405 1.0899
249210 2 114.4395 103.5405 3.2697
249297 2 114.4395 105.7203 1.0899
249298 2 116.6193 107.9001 1.0899
249299 2 116.6193 105.7203 3.2697
249300 2 114.4395 107.9001 3.2697
249301 1 113.3496 104.6304 0.0
249302 1 113.3496 106.8102 2.1798
249303 1 115.5294 104.6304 2.1798
249304 1 115.5294 106.8102 0.0
249309 1 113.3496 104.6304 4.3596
249312 1 115.5294 106.8102 4.3596
251297 2 120.9789 103.5405 1.0899
251299 2 118.7991 103.5405 3.2697
251387 2 118.7991 105.7203 1.0899
251388 2 120.9789 107.9001 1.0899
251389 2 120.9789 105.7203 3.2697
251390 2 118.7991 107.9001 3.2697
251391 1 117.7092 104.6304 0.0
251392 1 117.7092 106.8102 2.1798
251393 1 119.889 104.6304 2.1798
251394 1 119.889 106.8102 0.0
251399 1 117.7092 104.6304 4.3596
251402 1 119.889 106.8102 4.3596
253482 1 122.0688 104.6304 0.0
253483 1 122.0688 106.8102 2.1798
253490 1 122.0688 104.6304 4.3596
253387 2 125.3385 103.5405 1.0899
253389 2 123.1587 103.5405 3.2697
253478 2 123.1587 105.7203 1.0899
253479 2 125.3385 107.9001 1.0899
253480 2 125.3385 105.7203 3.2697
253481 2 123.1587 107.9001 3.2697
253484 1 124.2486 104.6304 2.1798
253485 1 124.2486 106.8102 0.0
253493 1 124.2486 106.8102 4.3596
255569 1 126.4284 104.6304 0.0
255570 1 126.4284 106.8102 2.1798
255577 1 126.4284 104.6304 4.3596
255472 2 129.6981 103.5405 1.0899
255474 2 127.5183 103.5405 3.2697
255565 2 127.5183 105.7203 1.0899
255566 2 129.6981 107.9001 1.0899
255567 2 129.6981 105.7203 3.2697
255568 2 127.5183 107.9001 3.2697
255571 1 128.6082 104.6304 2.1798
255572 1 128.6082 106.8102 0.0
255580 1 128.6082 106.8102 4.3596
257662 1 130.788 104.6304 0.0
257663 1 130.788 106.8102 2.1798
257670 1 130.788 104.6304 4.3596
257568 2 134.0577 103.5405 1.0899
257570 2 131.8779 103.5405 3.2697
257658 2 131.8779 105.7203 1.0899
257659 2 134.0577 107.9001 1.0899
257660 2 134.0577 105.7203 3.2697
257661 2 131.8779 107.9001 3.2697
257664 1 132.9678 104.6304 2.1798
257665 1 132.9678 106.8102 0.0
257673 1 132.9678 106.8102 4.3596
259655 2 136.2375 103.5405 3.2697
259742 2 136.2375 105.7203 1.0899
259745 2 136.2375 107.9001 3.2697
259746 1 135.1476 104.6304 0.0
259747 1 135.1476 106.8102 2.1798
259754 1 135.1476 104.6304 4.3596
259653 2 138.4173 103.5405 1.0899
259743 2 138.4173 107.9001 1.0899
259744 2 138.4173 105.7203 3.2697
259748 1 137.3274 104.6304 2.1798
259749 1 137.3274 106.8102 0.0
259757 1 137.3274 106.8102 4.3596
261735 2 140.5971 103.5405 3.2697
261824 2 140.5971 105.7203 1.0899
261827 2 140.5971 107.9001 3.2697
261828 1 139.5072 104.6304 0.0
261829 1 139.5072 106.8102 2.1798
261836 1 139.5072 104.6304 4.3596
261733 2 142.7769 103.5405 1.0899
261825 2 142.7769 107.9001 1.0899
261826 2 142.7769 105.7203 3.2697
261830 1 141.687 104.6304 2.1798
261831 1 141.687 106.8102 0.0
261839 1 141.687 106.8102 4.3596
263825 2 144.9567 103.5405 3.2697
263912 2 144.9567 105.7203 1.0899
263915 2 144.9567 107.9001 3.2697
263916 1 143.8668 104.6304 0.0
263917 1 143.8668 106.8102 2.1798
263924 1 143.8668 104.6304 4.3596
263823 2 147.1365 103.5405 1.0899
263913 2 147.1365 107.9001 1.0899
263914 2 147.1365 105.7203 3.2697
263918 1 146.0466 104.6304 2.1798
263919 1 146.0466 106.8102 0.0
263927 1 146.0466 106.8102 4.3596
265923 2 149.3163 103.5405 3.2697
266008 2 149.3163 105.7203 1.0899
266011 2 149.3163 107.9001 3.2697
266012 1 148.2264 104.6304 0.0
266013 1 148.2264 106.8102 2.1798
266020 1 148.2264 104.6304 4.3596
265921 2 151.4961 103.5405 1.0899
266009 2 151.4961 107.9001 1.0899
266010 2 151.4961 105.7203 3.2697
266014 1 150.4062 104.6304 2.1798
266015 1 150.4062 106.8102 0.0
266023 1 150.4062 106.8102 4.3596
268006 2 153.6759 103.5405 3.2697
268093 2 153.6759 105.7203 1.0899
268096 2 153.6759 107.9001 3.2697
268097 1 152.586 104.6304 0.0
268098 1 152.586 106.8102 2.1798
268099 1 154.7658 104.6304 2.1798
268100 1 154.7658 106.8102 0.0
268105 1 152.586 104.6304 4.3596
268108 1 154.7658 106.8102 4.3596
268004 2 155.8557 103.5405 1.0899
268094 2 155.8557 107.9001 1.0899
268095 2 155.8557 105.7203 3.2697
270084 2 158.0355 103.5405 3.2697
270170 2 158.0355 105.7203 1.0899
270173 2 158.0355 107.9001 3.2697
270174 1 156.9456 104.6304 0.0
270175 1 156.9456 106.8102 2.1798
270176 1 159.1254 104.6304 2.1798
270177 1 159.1254 106.8102 0.0
270182 1 156.9456 104.6304 4.3596
270185 1 159.1254 106.8102 4.3596
270082 2 160.2153 103.5405 1.0899
270171 2 160.2153 107.9001 1.0899
270172 2 160.2153 105.7203 3.2697
272173 2 162.3951 103.5405 3.2697
272261 2 162.3951 105.7203 1.0899
272264 2 162.3951 107.9001 3.2697
272265 1 161.3052 104.6304 0.0
272266 1 161.3052 106.8102 2.1798
272267 1 163.485 104.6304 2.1798
272268 1 163.485 106.8102 0.0
272273 1 161.3052 104.6304 4.3596
272276 1 163.485 106.8102 4.3596
272171 2 164.5749 103.5405 1.0899
272262 2 164.5749 107.9001 1.0899
272263 2 164.5749 105.7203 3.2697
274262 2 168.9345 103.5405 1.0899
274264 2 166.7547 103.5405 3.2697
274353 2 166.7547 105.7203 1.0899
274354 2 168.9345 107.9001 1.0899
274355 2 168.9345 105.7203 3.2697
274356 2 166.7547 107.9001 3.2697
274357 1 165.6648 104.6304 0.0
274358 1 165.6648 106.8102 2.1798
274359 1 167.8446 104.6304 2.1798
274360 1 167.8446 106.8102 0.0
274365 1 165.6648 104.6304 4.3596
274368 1 167.8446 106.8102 4.3596
276346 2 173.2941 103.5405 1.0899
276348 2 171.1143 103.5405 3.2697
276436 2 171.1143 105.7203 1.0899
276437 2 173.2941 107.9001 1.0899
276438 2 173.2941 105.7203 3.2697
276439 2 171.1143 107.9001 3.2697
276440 1 170.0244 104.6304 0.0
276441 1 170.0244 106.8102 2.1798
276442 1 172.2042 104.6304 2.1798
276443 1 172.2042 106.8102 0.0
276448 1 170.0244 104.6304 4.3596
276451 1 172.2042 106.8102 4.3596
278431 2 177.6537 103.5405 1.0899
278433 2 175.4739 103.5405 3.2697
278519 2 175.4739 105.7203 1.0899
278520 2 177.6537 107.9001 1.0899
278521 2 177.6537 105.7203 3.2697
278522 2 175.4739 107.9001 3.2697
278523 1 174.384 104.6304 0.0
278524 1 174.384 106.8102 2.1798
278525 1 176.5638 104.6304 2.1798
278526 1 176.5638 106.8102 0.0
278531 1 174.384 104.6304 4.3596
278534 1 176.5638 106.8102 4.3596
280514 2 182.0133 103.5405 1.0899
280516 2 179.8335 103.5405 3.2697
280604 2 179.8335 105.7203 1.0899
280605 2 182.0133 107.9001 1.0899
280606 2 182.0133 105.7203 3.2697
280607 2 179.8335 107.9001 3.2697
280608 1 178.7436 104.6304 0.0
280609 1 178.7436 106.8102 2.1798
280610 1 180.9234 104.6304 2.1798
280611 1 180.9234 106.8102 0.0
280616 1 178.7436 104.6304 4.3596
280619 1 180.9234 106.8102 4.3596
282692 1 183.1032 104.6304 0.0
282693 1 183.1032 106.8102 2.1798
282700 1 183.1032 104.6304 4.3596
282599 2 186.3729 103.5405 1.0899
282601 2 184.1931 103.5405 3.2697
282688 2 184.1931 105.7203 1.0899
282689 2 186.3729 107.9001 1.0899
282690 2 186.3729 105.7203 3.2697
282691 2 184.1931 107.9001 3.2697
282694 1 185.283 104.6304 2.1798
282695 1 185.283 106.8102 0.0
282703 1 185.283 106.8102 4.3596
284766 1 187.4628 104.6304 0.0
284767 1 187.4628 106.8102 2.1798
284774 1 187.4628 104.6304 4.3596
284675 2 190.7325 103.5405 1.0899
284677 2 188.5527 103.5405 3.2697
284762 2 188.5527 105.7203 1.0899
284763 2 190.7325 107.9001 1.0899
284764 2 190.7325 105.7203 3.2697
284765 2 188.5527 107.9001 3.2697
284768 1 189.6426 104.6304 2.1798
284769 1 189.6426 106.8102 0.0
284777 1 189.6426 106.8102 4.3596
286854 1 191.8224 104.6304 0.0
286855 1 191.8224 106.8102 2.1798
286862 1 191.8224 104.6304 4.3596
286759 2 195.0921 103.5405 1.0899
286761 2 192.9123 103.5405 3.2697
286850 2 192.9123 105.7203 1.0899
286851 2 195.0921 107.9001 1.0899
286852 2 195.0921 105.7203 3.2697
286853 2 192.9123 107.9001 3.2697
286856 1 194.0022 104.6304 2.1798
286857 1 194.0022 106.8102 0.0
286865 1 194.0022 106.8102 4.3596
288848 2 197.2719 103.5405 3.2697
288938 2 197.2719 105.7203 1.0899
288941 2 197.2719 107.9001 3.2697
288942 1 196.182 104.6304 0.0
288943 1 196.182 106.8102 2.1798
288950 1 196.182 104.6304 4.3596
288846 2 199.4517 103.5405 1.0899
288939 2 199.4517 107.9001 1.0899
288940 2 199.4517 105.7203 3.2697
288944 1 198.3618 104.6304 2.1798
288945 1 198.3618 106.8102 0.0
288953 1 198.3618 106.8102 4.3596
140872 2 90.4617 112.2597 1.0899
140873 2 90.4617 110.0799 3.2697
142957 2 92.6415 110.0799 1.0899
142960 2 92.6415 112.2597 3.2697
142961 1 91.5516 108.99 0.0
142962 1 91.5516 111.1698 2.1798
142963 1 93.7314 108.99 2.1798
142964 1 93.7314 111.1698 0.0
142969 1 91.5516 108.99 4.3596
142972 1 93.7314 111.1698 4.3596
142958 2 94.8213 112.2597 1.0899
142959 2 94.8213 110.0799 3.2697
145046 2 97.0011 110.0799 1.0899
145049 2 97.0011 112.2597 3.2697
145050 1 95.9112 108.99 0.0
145051 1 95.9112 111.1698 2.1798
145052 1 98.091 108.99 2.1798
145053 1 98.091 111.1698 0.0
145058 1 95.9112 108.99 4.3596
145061 1 98.091 111.1698 4.3596
145047 2 99.1809 112.2597 1.0899
145048 2 99.1809 110.0799 3.2697
243126 2 101.3607 110.0799 1.0899
243129 2 101.3607 112.2597 3.2697
243130 1 100.2708 108.99 0.0
243131 1 100.2708 111.1698 2.1798
243132 1 102.4506 108.99 2.1798
243133 1 102.4506 111.1698 0.0
243138 1 100.2708 108.99 4.3596
243141 1 102.4506 111.1698 4.3596
243127 2 103.5405 112.2597 1.0899
243128 2 103.5405 110.0799 3.2697
245220 2 105.7203 110.0799 1.0899
245221 2 107.9001 112.2597 1.0899
245222 2 107.9001 110.0799 3.2697
245223 2 105.7203 112.2597 3.2697
245224 1 104.6304 108.99 0.0
245225 1 104.6304 111.1698 2.1798
245226 1 106.8102 108.99 2.1798
245227 1 106.8102 111.1698 0.0
245232 1 104.6304 108.99 4.3596
245235 1 106.8102 111.1698 4.3596
247312 2 110.0799 110.0799 1.0899
247313 2 112.2597 112.2597 1.0899
247314 2 112.2597 110.0799 3.2697
247315 2 110.0799 112.2597 3.2697
247316 1 108.99 108.99 0.0
247317 1 108.99 111.1698 2.1798
247318 1 111.1698 108.99 2.1798
247319 1 111.1698 111.1698 0.0
247324 1 108.99 108.99 4.3596
247327 1 111.1698 111.1698 4.3596
249387 2 114.4395 110.0799 1.0899
249388 2 116.6193 112.2597 1.0899
249389 2 116.6193 110.0799 3.2697
249390 2 114.4395 112.2597 3.2697
249391 1 113.3496 108.99 0.0
249392 1 113.3496 111.1698 2.1798
249393 1 115.5294 108.99 2.1798
249394 1 115.5294 111.1698 0.0
249399 1 113.3496 108.99 4.3596
249402 1 115.5294 111.1698 4.3596
251477 2 118.7991 110.0799 1.0899
251478 2 120.9789 112.2597 1.0899
251479 2 120.9789 110.0799 3.2697
251480 2 118.7991 112.2597 3.2697
251481 1 117.7092 108.99 0.0
251482 1 117.7092 111.1698 2.1798
251483 1 119.889 108.99 2.1798
251484 1 119.889 111.1698 0.0
251489 1 117.7092 108.99 4.3596
251492 1 119.889 111.1698 4.3596
253575 1 122.0688 108.99 0.0
253576 1 122.0688 111.1698 2.1798
253583 1 122.0688 108.99 4.3596
253571 2 123.1587 110.0799 1.0899
253572 2 125.3385 112.2597 1.0899
253573 2 125.3385 110.0799 3.2697
253574 2 123.1587 112.2597 3.2697
253577 1 124.2486 108.99 2.1798
253578 1 124.2486 111.1698 0.0
253586 1 124.2486 111.1698 4.3596
255658 1 126.4284 108.99 0.0
255659 1 126.4284 111.1698 2.1798
255666 1 126.4284 108.99 4.3596
255654 2 127.5183 110.0799 1.0899
255655 2 129.6981 112.2597 1.0899
255656 2 129.6981 110.0799 3.2697
255657 2 127.5183 112.2597 3.2697
255660 1 128.6082 108.99 2.1798
255661 1 128.6082 111.1698 0.0
255669 1 128.6082 111.1698 4.3596
257754 1 130.788 108.99 0.0
257755 1 130.788 111.1698 2.1798
257762 1 130.788 108.99 4.3596
257750 2 131.8779 110.0799 1.0899
257751 2 134.0577 112.2597 1.0899
257752 2 134.0577 110.0799 3.2697
257753 2 131.8779 112.2597 3.2697
257756 1 132.9678 108.99 2.1798
257757 1 132.9678 111.1698 0.0
257765 1 132.9678 111.1698 4.3596
259831 2 136.2375 110.0799 1.0899
259834 2 136.2375 112.2597 3.2697
259835 1 135.1476 108.99 0.0
259836 1 135.1476 111.1698 2.1798
259843 1 135.1476 108.99 4.3596
259832 2 138.4173 112.2597 1.0899
259833 2 138.4173 110.0799 3.2697
259837 1 137.3274 108.99 2.1798
259838 1 137.3274 111.1698 0.0
259846 1 137.3274 111.1698 4.3596
261916 2 140.5971 110.0799 1.0899
261919 2 140.5971 112.2597 3.2697
261920 1 139.5072 108.99 0.0
261921 1 139.5072 111.1698 2.1798
261928 1 139.5072 108.99 4.3596
261917 2 142.7769 112.2597 1.0899
261918 2 142.7769 110.0799 3.2697
261922 1 141.687 108.99 2.1798
261923 1 141.687 111.1698 0.0
261931 1 141.687 111.1698 4.3596
264002 2 144.9567 110.0799 1.0899
264005 2 144.9567 112.2597 3.2697
264006 1 143.8668 108.99 0.0
264007 1 143.8668 111.1698 2.1798
264014 1 143.8668 108.99 4.3596
264003 2 147.1365 112.2597 1.0899
264004 2 147.1365 110.0799 3.2697
264008 1 146.0466 108.99 2.1798
264009 1 146.0466 111.1698 0.0
264017 1 146.0466 111.1698 4.3596
266098 2 149.3163 110.0799 1.0899
266101 2 149.3163 112.2597 3.2697
266102 1 148.2264 108.99 0.0
266103 1 148.2264 111.1698 2.1798
266110 1 148.2264 108.99 4.3596
266099 2 151.4961 112.2597 1.0899
266100 2 151.4961 110.0799 3.2697
266104 1 150.4062 108.99 2.1798
266105 1 150.4062 111.1698 0.0
266113 1 150.4062 111.1698 4.3596
268183 2 153.6759 110.0799 1.0899
268186 2 153.6759 112.2597 3.2697
268187 1 152.586 108.99 0.0
268188 1 152.586 111.1698 2.1798
268189 1 154.7658 108.99 2.1798
268190 1 154.7658 111.1698 0.0
268195 1 152.586 108.99 4.3596
268198 1 154.7658 111.1698 4.3596
268184 2 155.8557 112.2597 1.0899
268185 2 155.8557 110.0799 3.2697
270259 2 158.0355 110.0799 1.0899
270262 2 158.0355 112.2597 3.2697
270263 1 156.9456 108.99 0.0
270264 1 156.9456 111.1698 2.1798
270265 1 159.1254 108.99 2.1798
270266 1 159.1254 111.1698 0.0
270271 1 156.9456 108.99 4.3596
270274 1 159.1254 111.1698 4.3596
270260 2 160.2153 112.2597 1.0899
270261 2 160.2153 110.0799 3.2697
272352 2 162.3951 110.0799 1.0899
272355 2 162.3951 112.2597 3.2697
272356 1 161.3052 108.99 0.0
272357 1 161.3052 111.1698 2.1798
272358 1 163.485 108.99 2.1798
272359 1 163.485 111.1698 0.0
272364 1 161.3052 108.99 4.3596
272367 1 163.485 111.1698 4.3596
272353 2 164.5749 112.2597 1.0899
272354 2 164.5749 110.0799 3.2697
274442 2 166.7547 110.0799 1.0899
274443 2 168.9345 112.2597 1.0899
274444 2 168.9345 110.0799 3.2697
274445 2 166.7547 112.2597 3.2697
274446 1 165.6648 108.99 0.0
274447 1 165.6648 111.1698 2.1798
274448 1 167.8446 108.99 2.1798
274449 1 167.8446 111.1698 0.0
274454 1 165.6648 108.99 4.3596
274457 1 167.8446 111.1698 4.3596
276524 2 171.1143 110.0799 1.0899
276525 2 173.2941 112.2597 1.0899
276526 2 173.2941 110.0799 3.2697
276527 2 171.1143 112.2597 3.2697
276528 1 170.0244 108.99 0.0
276529 1 170.0244 111.1698 2.1798
276530 1 172.2042 108.99 2.1798
276531 1 172.2042 111.1698 0.0
276536 1 170.0244 108.99 4.3596
276539 1 172.2042 111.1698 4.3596
278613 2 175.4739 110.0799 1.0899
278614 2 177.6537 112.2597 1.0899
278615 2 177.6537 110.0799 3.2697
278616 2 175.4739 112.2597 3.2697
278617 1 174.384 108.99 0.0
278618 1 174.384 111.1698 2.1798
278619 1 176.5638 108.99 2.1798
278620 1 176.5638 111.1698 0.0
278625 1 174.384 108.99 4.3596
278628 1 176.5638 111.1698 4.3596
280696 2 179.8335 110.0799 1.0899
280697 2 182.0133 112.2597 1.0899
280698 2 182.0133 110.0799 3.2697
280699 2 179.8335 112.2597 3.2697
280700 1 178.7436 108.99 0.0
280701 1 178.7436 111.1698 2.1798
280702 1 180.9234 108.99 2.1798
280703 1 180.9234 111.1698 0.0
280708 1 178.7436 108.99 4.3596
280711 1 180.9234 111.1698 4.3596
282781 1 183.1032 108.99 0.0
282782 1 183.1032 111.1698 2.1798
282789 1 183.1032 108.99 4.3596
282777 2 184.1931 110.0799 1.0899
282778 2 186.3729 112.2597 1.0899
282779 2 186.3729 110.0799 3.2697
282780 2 184.1931 112.2597 3.2697
282783 1 185.283 108.99 2.1798
282784 1 185.283 111.1698 0.0
282792 1 185.283 111.1698 4.3596
284857 1 187.4628 108.99 0.0
284858 1 187.4628 111.1698 2.1798
284865 1 187.4628 108.99 4.3596
284853 2 188.5527 110.0799 1.0899
284854 2 190.7325 112.2597 1.0899
284855 2 190.7325 110.0799 3.2697
284856 2 188.5527 112.2597 3.2697
284859 1 189.6426 108.99 2.1798
284860 1 189.6426 111.1698 0.0
284868 1 189.6426 111.1698 4.3596
286943 1 191.8224 108.99 0.0
286944 1 191.8224 111.1698 2.1798
286951 1 191.8224 108.99 4.3596
286939 2 192.9123 110.0799 1.0899
286940 2 195.0921 112.2597 1.0899
286941 2 195.0921 110.0799 3.2697
286942 2 192.9123 112.2597 3.2697
286945 1 194.0022 108.99 2.1798
286946 1 194.0022 111.1698 0.0
286954 1 194.0022 111.1698 4.3596
289028 2 197.2719 110.0799 1.0899
289031 2 197.2719 112.2597 3.2697
289032 1 196.182 108.99 0.0
289033 1 196.182 111.1698 2.1798
289040 1 196.182 108.99 4.3596
289029 2 199.4517 112.2597 1.0899
289030 2 199.4517 110.0799 3.2697
289034 1 198.3618 108.99 2.1798
289035 1 198.3618 111.1698 0.0
289043 1 198.3618 111.1698 4.3596
140962 2 90.4617 116.6193 1.0899
140963 2 90.4617 114.4395 3.2697
143047 2 92.6415 114.4395 1.0899
143050 2 92.6415 116.6193 3.2697
143051 1 91.5516 113.3496 0.0
143052 1 91.5516 115.5294 2.1798
143053 1 93.7314 113.3496 2.1798
143054 1 93.7314 115.5294 0.0
143059 1 91.5516 113.3496 4.3596
143062 1 93.7314 115.5294 4.3596
143048 2 94.8213 116.6193 1.0899
143049 2 94.8213 114.4395 3.2697
145139 2 97.0011 114.4395 1.0899
145142 2 97.0011 116.6193 3.2697
145143 1 95.9112 113.3496 0.0
145144 1 95.9112 115.5294 2.1798
145145 1 98.091 113.3496 2.1798
145146 1 98.091 115.5294 0.0
145151 1 95.9112 113.3496 4.3596
145154 1 98.091 115.5294 4.3596
145140 2 99.1809 116.6193 1.0899
145141 2 99.1809 114.4395 3.2697
243216 2 101.3607 114.4395 1.0899
243219 2 101.3607 116.6193 3.2697
243220 1 100.2708 113.3496 0.0
243221 1 100.2708 115.5294 2.1798
243222 1 102.4506 113.3496 2.1798
243223 1 102.4506 115.5294 0.0
243228 1 100.2708 113.3496 4.3596
243231 1 102.4506 115.5294 4.3596
243217 2 103.5405 116.6193 1.0899
243218 2 103.5405 114.4395 3.2697
245313 2 105.7203 114.4395 1.0899
245314 2 107.9001 116.6193 1.0899
245315 2 107.9001 114.4395 3.2697
245316 2 105.7203 116.6193 3.2697
245317 1 104.6304 113.3496 0.0
245318 1 104.6304 115.5294 2.1798
245319 1 106.8102 113.3496 2.1798
245320 1 106.8102 115.5294 0.0
245325 1 104.6304 113.3496 4.3596
245328 1 106.8102 115.5294 4.3596
247405 2 110.0799 114.4395 1.0899
247406 2 112.2597 116.6193 1.0899
247407 2 112.2597 114.4395 3.2697
247408 2 110.0799 116.6193 3.2697
247409 1 108.99 113.3496 0.0
247410 1 108.99 115.5294 2.1798
247411 1 111.1698 113.3496 2.1798
247412 1 111.1698 115.5294 0.0
247417 1 108.99 113.3496 4.3596
247420 1 111.1698 115.5294 4.3596
249476 2 114.4395 114.4395 1.0899
249477 2 116.6193 116.6193 1.0899
249478 2 116.6193 114.4395 3.2697
249479 2 114.4395 116.6193 3.2697
249480 1 113.3496 113.3496 0.0
249481 1 113.3496 115.5294 2.1798
249482 1 115.5294 113.3496 2.1798
249483 1 115.5294 115.5294 0.0
249488 1 113.3496 113.3496 4.3596
249491 1 115.5294 115.5294 4.3596
251569 2 118.7991 114.4395 1.0899
251570 2 120.9789 116.6193 1.0899
251571 2 120.9789 114.4395 3.2697
251572 2 118.7991 116.6193 3.2697
251573 1 117.7092 113.3496 0.0
251574 1 117.7092 115.5294 2.1798
251575 1 119.889 113.3496 2.1798
251576 1 119.889 115.5294 0.0
251581 1 117.7092 113.3496 4.3596
251584 1 119.889 115.5294 4.3596
253663 1 122.0688 113.3496 0.0
253664 1 122.0688 115.5294 2.1798
253671 1 122.0688 113.3496 4.3596
253659 2 123.1587 114.4395 1.0899
253660 2 125.3385 116.6193 1.0899
253661 2 125.3385 114.4395 3.2697
253662 2 123.1587 116.6193 3.2697
253665 1 124.2486 113.3496 2.1798
253666 1 124.2486 115.5294 0.0
253674 1 124.2486 115.5294 4.3596
255748 1 126.4284 113.3496 0.0
255749 1 126.4284 115.5294 2.1798
255756 1 126.4284 113.3496 4.3596
255744 2 127.5183 114.4395 1.0899
255745 2 129.6981 116.6193 1.0899
255746 2 129.6981 114.4395 3.2697
255747 2 127.5183 116.6193 3.2697
255750 1 128.6082 113.3496 2.1798
255751 1 128.6082 115.5294 0.0
255759 1 128.6082 115.5294 4.3596
257845 1 130.788 113.3496 0.0
257846 1 130.788 115.5294 2.1798
257853 1 130.788 113.3496 4.3596
257841 2 131.8779 114.4395 1.0899
257842 2 134.0577 116.6193 1.0899
257843 2 134.0577 114.4395 3.2697
257844 2 131.8779 116.6193 3.2697
257847 1 132.9678 113.3496 2.1798
257848 1 132.9678 115.5294 0.0
257856 1 132.9678 115.5294 4.3596
259922 2 136.2375 114.4395 1.0899
259925 2 136.2375 116.6193 3.2697
259926 1 135.1476 113.3496 0.0
259927 1 135.1476 115.5294 2.1798
259934 1 135.1476 113.3496 4.3596
259923 2 138.4173 116.6193 1.0899
259924 2 138.4173 114.4395 3.2697
259928 1 137.3274 113.3496 2.1798
259929 1 137.3274 115.5294 0.0
259937 1 137.3274 115.5294 4.3596
262010 2 140.5971 114.4395 1.0899
262013 2 140.5971 116.6193 3.2697
262014 1 139.5072 113.3496 0.0
262015 1 139.5072 115.5294 2.1798
262022 1 139.5072 113.3496 4.3596
262011 2 142.7769 116.6193 1.0899
262012 2 142.7769 114.4395 3.2697
262016 1 141.687 113.3496 2.1798
262017 1 141.687 115.5294 0.0
262025 1 141.687 115.5294 4.3596
264094 2 144.9567 114.4395 1.0899
264097 2 144.9567 116.6193 3.2697
264098 1 143.8668 113.3496 0.0
264099 1 143.8668 115.5294 2.1798
264106 1 143.8668 113.3496 4.3596
264095 2 147.1365 116.6193 1.0899
264096 2 147.1365 114.4395 3.2697
264100 1 146.0466 113.3496 2.1798
264101 1 146.0466 115.5294 0.0
264109 1 146.0466 115.5294 4.3596
266190 2 149.3163 114.4395 1.0899
266193 2 149.3163 116.6193 3.2697
266194 1 148.2264 113.3496 0.0
266195 1 148.2264 115.5294 2.1798
266202 1 148.2264 113.3496 4.3596
266191 2 151.4961 116.6193 1.0899
266192 2 151.4961 114.4395 3.2697
266196 1 150.4062 113.3496 2.1798
266197 1 150.4062 115.5294 0.0
266205 1 150.4062 115.5294 4.3596
268274 2 153.6759 114.4395 1.0899
268277 2 153.6759 116.6193 3.2697
268278 1 152.586 113.3496 0.0
268279 1 152.586 115.5294 2.1798
268280 1 154.7658 113.3496 2.1798
268281 1 154.7658 115.5294 0.0
268286 1 152.586 113.3496 4.3596
268289 1 154.7658 115.5294 4.3596
268275 2 155.8557 116.6193 1.0899
268276 2 155.8557 114.4395 3.2697
270350 2 158.0355 114.4395 1.0899
270353 2 158.0355 116.6193 3.2697
270354 1 156.9456 113.3496 0.0
270355 1 156.9456 115.5294 2.1798
270356 1 159.1254 113.3496 2.1798
270357 1 159.1254 115.5294 0.0
270362 1 156.9456 113.3496 4.3596
270365 1 159.1254 115.5294 4.3596
270351 2 160.2153 116.6193 1.0899
270352 2 160.2153 114.4395 3.2697
272443 2 162.3951 114.4395 1.0899
272446 2 162.3951 116.6193 3.2697
272447 1 161.3052 113.3496 0.0
272448 1 161.3052 115.5294 2.1798
272449 1 163.485 113.3496 2.1798
272450 1 163.485 115.5294 0.0
272455 1 161.3052 113.3496 4.3596
272458 1 163.485 115.5294 4.3596
272444 2 164.5749 116.6193 1.0899
272445 2 164.5749 114.4395 3.2697
274533 2 166.7547 114.4395 1.0899
274534 2 168.9345 116.6193 1.0899
274535 2 168.9345 114.4395 3.2697
274536 2 166.7547 116.6193 3.2697
274537 1 165.6648 113.3496 0.0
274538 1 165.6648 115.5294 2.1798
274539 1 167.8446 113.3496 2.1798
274540 1 167.8446 115.5294 0.0
274545 1 165.6648 113.3496 4.3596
274548 1 167.8446 115.5294 4.3596
276614 2 171.1143 114.4395 1.0899
276615 2 173.2941 116.6193 1.0899
276616 2 173.2941 114.4395 3.2697
276617 2 171.1143 116.6193 3.2697
276618 1 170.0244 113.3496 0.0
276619 1 170.0244 115.5294 2.1798
276620 1 172.2042 113.3496 2.1798
276621 1 172.2042 115.5294 0.0
276626 1 170.0244 113.3496 4.3596
276629 1 172.2042 115.5294 4.3596
278703 2 175.4739 114.4395 1.0899
278704 2 177.6537 116.6193 1.0899
278705 2 177.6537 114.4395 3.2697
278706 2 175.4739 116.6193 3.2697
278707 1 174.384 113.3496 0.0
278708 1 174.384 115.5294 2.1798
278709 1 176.5638 113.3496 2.1798
278710 1 176.5638 115.5294 0.0
278715 1 174.384 113.3496 4.3596
278718 1 176.5638 115.5294 4.3596
280786 2 179.8335 114.4395 1.0899
280787 2 182.0133 116.6193 1.0899
280788 2 182.0133 114.4395 3.2697
280789 2 179.8335 116.6193 3.2697
280790 1 178.7436 113.3496 0.0
280791 1 178.7436 115.5294 2.1798
280792 1 180.9234 113.3496 2.1798
280793 1 180.9234 115.5294 0.0
280798 1 178.7436 113.3496 4.3596
280801 1 180.9234 115.5294 4.3596
282870 1 183.1032 113.3496 0.0
282871 1 183.1032 115.5294 2.1798
282878 1 183.1032 113.3496 4.3596
282866 2 184.1931 114.4395 1.0899
282867 2 186.3729 116.6193 1.0899
282868 2 186.3729 114.4395 3.2697
282869 2 184.1931 116.6193 3.2697
282872 1 185.283 113.3496 2.1798
282873 1 185.283 115.5294 0.0
282881 1 185.283 115.5294 4.3596