# LAMMPS data file written by Ovito 3.5.4
12 atoms
2 atom types
0.0 200.5416 xlo xhi
0.0 200.5416 ylo yhi
0.0 122.0688 zlo zhi

Atoms  # atomic

160979 1 100.2708 100.2708 0.0
160987 1 100.2708 100.2708 4.3596
160995 1 100.2708 100.2708 8.7192
161003 1 100.2708 100.2708 13.0788
161011 1 100.2708 100.2708 17.4384
161019 1 100.2708 100.2708 21.798
161027 1 100.2708 100.2708 26.1576
161035 1 100.2708 100.2708 30.5172
161043 1 100.2708 100.2708 34.8768
161051 1 100.2708 100.2708 39.2364
161059 1 100.2708 100.2708 43.596
221669 1 100.2708 100.2708 111.0
