 # SiC with zincblende structure oriented X=[100] Y=[010] Z=[001].
 CRYSTAL
 PRIMVEC
     41.43645740        0.00000000       41.43645740
      0.00000000       58.60000000        0.00000000
    -41.43645740        0.00000000       41.43645740
 CONVVEC
     41.43645740        0.00000000       41.43645740
      0.00000000       58.60000000        0.00000000
    -41.43645740        0.00000000       41.43645740
 PRIMCOORD
     8000 1
14        0.00000000        0.00000000        0.00000000
14        0.00000000        2.93000000        2.93000000
14       -2.93000000        2.93000000        0.00000000
14       -2.93000000        0.00000000        2.93000000
6       -1.46500000        1.46500000        1.46500000
6       -1.46500000        4.39500000        4.39500000
6       -4.39500000        1.46500000        4.39500000
6       -4.39500000        4.39500000        1.46500000
14        0.00000000        0.00000000        5.86000000
14        0.00000000        2.93000000        8.79000000
14       -2.93000000        2.93000000        5.86000000
14       -2.93000000        0.00000000        8.79000000
6       -1.46500000        1.46500000        7.32500000
6       -1.46500000        4.39500000       10.25500001
6       -4.39500000        1.46500000       10.25500001
6       -4.39500000        4.39500000        7.32500000
14        0.00000000        0.00000000       11.72000001
14        0.00000000        2.93000000       14.65000001
14       -2.93000000        2.93000000       11.72000001
14       -2.93000000        0.00000000       14.65000001
6       -1.46500000        1.46500000       13.18500001
6       -1.46500000        4.39500000       16.11500001
6       -4.39500000        1.46500000       16.11500001
6       -4.39500000        4.39500000       13.18500001
14        0.00000000        0.00000000       17.58000001
14        0.00000000        2.93000000       20.51000001
14       -2.93000000        2.93000000       17.58000001
14       -2.93000000        0.00000000       20.51000001
6       -1.46500000        1.46500000       19.04500001
6       -1.46500000        4.39500000       21.97500001
6       -4.39500000        1.46500000       21.97500001
6       -4.39500000        4.39500000       19.04500001
14        0.00000000        0.00000000       23.44000001
14        0.00000000        2.93000000       26.37000001
14       -2.93000000        2.93000000       23.44000001
14       -2.93000000        0.00000000       26.37000001
6       -1.46500000        1.46500000       24.90500001
6       -1.46500000        4.39500000       27.83500002
6       -4.39500000        1.46500000       27.83500002
6       -4.39500000        4.39500000       24.90500001
14        0.00000000        0.00000000       29.30000002
14        0.00000000        2.93000000       32.23000002
14       -2.93000000        2.93000000       29.30000002
14       -2.93000000        0.00000000       32.23000002
6       -1.46500000        1.46500000       30.76500002
6       -1.46500000        4.39500000       33.69500002
6       -4.39500000        1.46500000       33.69500002
6       -4.39500000        4.39500000       30.76500002
14        0.00000000        0.00000000       35.16000002
14        0.00000000        2.93000000       38.09000002
14       -2.93000000        2.93000000       35.16000002
14       -2.93000000        0.00000000       38.09000002
6       -1.46500000        1.46500000       36.62500002
6       -1.46500000        4.39500000       39.55500002
6       -4.39500000        1.46500000       39.55500002
6       -4.39500000        4.39500000       36.62500002
14        0.00000000        0.00000000       41.02000002
14        0.00000000        2.93000000       43.95000002
14       -2.93000000        2.93000000       41.02000002
14       -2.93000000        0.00000000       43.95000002
6       -1.46500000        1.46500000       42.48500002
6       -1.46500000        4.39500000       45.41500002
6       -4.39500000        1.46500000       45.41500002
6       -4.39500000        4.39500000       42.48500002
14        0.00000000        0.00000000       46.88000003
14        0.00000000        2.93000000       49.81000003
14       -2.93000000        2.93000000       46.88000003
14       -2.93000000        0.00000000       49.81000003
6       -1.46500000        1.46500000       48.34500003
6       -1.46500000        4.39500000       51.27500003
6       -4.39500000        1.46500000       51.27500003
6       -4.39500000        4.39500000       48.34500003
14        0.00000000        0.00000000       52.74000003
14        0.00000000        2.93000000       55.67000003
14       -2.93000000        2.93000000       52.74000003
14       -2.93000000        0.00000000       55.67000003
6       -1.46500000        1.46500000       54.20500003
6       -1.46500000        4.39500000       57.13500003
6       -4.39500000        1.46500000       57.13500003
6       -4.39500000        4.39500000       54.20500003
14        0.00000000        5.86000000        0.00000000
14        0.00000000        8.79000000        2.93000000
14       -2.93000000        8.79000000        0.00000000
14       -2.93000000        5.86000000        2.93000000
6       -1.46500000        7.32500000        1.46500000
6       -1.46500000       10.25500000        4.39500000
6       -4.39500000        7.32500000        4.39500000
6       -4.39500000       10.25500000        1.46500000
14        0.00000000        5.86000000        5.86000000
14        0.00000000        8.79000000        8.79000000
14       -2.93000000        8.79000000        5.86000000
14       -2.93000000        5.86000000        8.79000000
6       -1.46500000        7.32500000        7.32500000
6       -1.46500000       10.25500000       10.25500001
6       -4.39500000        7.32500000       10.25500001
6       -4.39500000       10.25500000        7.32500000
14        0.00000000        5.86000000       11.72000001
14        0.00000000        8.79000000       14.65000001
14       -2.93000000        8.79000000       11.72000001
14       -2.93000000        5.86000000       14.65000001
6       -1.46500000        7.32500000       13.18500001
6       -1.46500000       10.25500000       16.11500001
6       -4.39500000        7.32500000       16.11500001
6       -4.39500000       10.25500000       13.18500001
14        0.00000000        5.86000000       17.58000001
14        0.00000000        8.79000000       20.51000001
14       -2.93000000        8.79000000       17.58000001
14       -2.93000000        5.86000000       20.51000001
6       -1.46500000        7.32500000       19.04500001
6       -1.46500000       10.25500000       21.97500001
6       -4.39500000        7.32500000       21.97500001
6       -4.39500000       10.25500000       19.04500001
14        0.00000000        5.86000000       23.44000001
14        0.00000000        8.79000000       26.37000001
14       -2.93000000        8.79000000       23.44000001
14       -2.93000000        5.86000000       26.37000001
6       -1.46500000        7.32500000       24.90500001
6       -1.46500000       10.25500000       27.83500002
6       -4.39500000        7.32500000       27.83500002
6       -4.39500000       10.25500000       24.90500001
14        0.00000000        5.86000000       29.30000002
14        0.00000000        8.79000000       32.23000002
14       -2.93000000        8.79000000       29.30000002
14       -2.93000000        5.86000000       32.23000002
6       -1.46500000        7.32500000       30.76500002
6       -1.46500000       10.25500000       33.69500002
6       -4.39500000        7.32500000       33.69500002
6       -4.39500000       10.25500000       30.76500002
14        0.00000000        5.86000000       35.16000002
14        0.00000000        8.79000000       38.09000002
14       -2.93000000        8.79000000       35.16000002
14       -2.93000000        5.86000000       38.09000002
6       -1.46500000        7.32500000       36.62500002
6       -1.46500000       10.25500000       39.55500002
6       -4.39500000        7.32500000       39.55500002
6       -4.39500000       10.25500000       36.62500002
14        0.00000000        5.86000000       41.02000002
14        0.00000000        8.79000000       43.95000002
14       -2.93000000        8.79000000       41.02000002
14       -2.93000000        5.86000000       43.95000002
6       -1.46500000        7.32500000       42.48500002
6       -1.46500000       10.25500000       45.41500002
6       -4.39500000        7.32500000       45.41500002
6       -4.39500000       10.25500000       42.48500002
14        0.00000000        5.86000000       46.88000003
14        0.00000000        8.79000000       49.81000003
14       -2.93000000        8.79000000       46.88000003
14       -2.93000000        5.86000000       49.81000003
6       -1.46500000        7.32500000       48.34500003
6       -1.46500000       10.25500000       51.27500003
6       -4.39500000        7.32500000       51.27500003
6       -4.39500000       10.25500000       48.34500003
14        0.00000000        5.86000000       52.74000003
14        0.00000000        8.79000000       55.67000003
14       -2.93000000        8.79000000       52.74000003
14       -2.93000000        5.86000000       55.67000003
6       -1.46500000        7.32500000       54.20500003
6       -1.46500000       10.25500000       57.13500003
6       -4.39500000        7.32500000       57.13500003
6       -4.39500000       10.25500000       54.20500003
14        0.00000000       11.72000000        0.00000000
14        0.00000000       14.65000000        2.93000000
14       -2.93000000       14.65000000        0.00000000
14       -2.93000000       11.72000000        2.93000000
6       -1.46500000       13.18500000        1.46500000
6       -1.46500000       16.11500000        4.39500000
6       -4.39500000       13.18500000        4.39500000
6       -4.39500000       16.11500000        1.46500000
14        0.00000000       11.72000000        5.86000000
14        0.00000000       14.65000000        8.79000000
14       -2.93000000       14.65000000        5.86000000
14       -2.93000000       11.72000000        8.79000000
6       -1.46500000       13.18500000        7.32500000
6       -1.46500000       16.11500000       10.25500001
6       -4.39500000       13.18500000       10.25500001
6       -4.39500000       16.11500000        7.32500000
14        0.00000000       11.72000000       11.72000001
14        0.00000000       14.65000000       14.65000001
14       -2.93000000       14.65000000       11.72000001
14       -2.93000000       11.72000000       14.65000001
6       -1.46500000       13.18500000       13.18500001
6       -1.46500000       16.11500000       16.11500001
6       -4.39500000       13.18500000       16.11500001
6       -4.39500000       16.11500000       13.18500001
14        0.00000000       11.72000000       17.58000001
14        0.00000000       14.65000000       20.51000001
14       -2.93000000       14.65000000       17.58000001
14       -2.93000000       11.72000000       20.51000001
6       -1.46500000       13.18500000       19.04500001
6       -1.46500000       16.11500000       21.97500001
6       -4.39500000       13.18500000       21.97500001
6       -4.39500000       16.11500000       19.04500001
14        0.00000000       11.72000000       23.44000001
14        0.00000000       14.65000000       26.37000001
14       -2.93000000       14.65000000       23.44000001
14       -2.93000000       11.72000000       26.37000001
6       -1.46500000       13.18500000       24.90500001
6       -1.46500000       16.11500000       27.83500002
6       -4.39500000       13.18500000       27.83500002
6       -4.39500000       16.11500000       24.90500001
14        0.00000000       11.72000000       29.30000002
14        0.00000000       14.65000000       32.23000002
14       -2.93000000       14.65000000       29.30000002
14       -2.93000000       11.72000000       32.23000002
6       -1.46500000       13.18500000       30.76500002
6       -1.46500000       16.11500000       33.69500002
6       -4.39500000       13.18500000       33.69500002
6       -4.39500000       16.11500000       30.76500002
14        0.00000000       11.72000000       35.16000002
14        0.00000000       14.65000000       38.09000002
14       -2.93000000       14.65000000       35.16000002
14       -2.93000000       11.72000000       38.09000002
6       -1.46500000       13.18500000       36.62500002
6       -1.46500000       16.11500000       39.55500002
6       -4.39500000       13.18500000       39.55500002
6       -4.39500000       16.11500000       36.62500002
14        0.00000000       11.72000000       41.02000002
14        0.00000000       14.65000000       43.95000002
14       -2.93000000       14.65000000       41.02000002
14       -2.93000000       11.72000000       43.95000002
6       -1.46500000       13.18500000       42.48500002
6       -1.46500000       16.11500000       45.41500002
6       -4.39500000       13.18500000       45.41500002
6       -4.39500000       16.11500000       42.48500002
14        0.00000000       11.72000000       46.88000003
14        0.00000000       14.65000000       49.81000003
14       -2.93000000       14.65000000       46.88000003
14       -2.93000000       11.72000000       49.81000003
6       -1.46500000       13.18500000       48.34500003
6       -1.46500000       16.11500000       51.27500003
6       -4.39500000       13.18500000       51.27500003
6       -4.39500000       16.11500000       48.34500003
14        0.00000000       11.72000000       52.74000003
14        0.00000000       14.65000000       55.67000003
14       -2.93000000       14.65000000       52.74000003
14       -2.93000000       11.72000000       55.67000003
6       -1.46500000       13.18500000       54.20500003
6       -1.46500000       16.11500000       57.13500003
6       -4.39500000       13.18500000       57.13500003
6       -4.39500000       16.11500000       54.20500003
14        0.00000000       17.58000000        0.00000000
14        0.00000000       20.51000000        2.93000000
14       -2.93000000       20.51000000        0.00000000
14       -2.93000000       17.58000000        2.93000000
6       -1.46500000       19.04500000        1.46500000
6       -1.46500000       21.97500000        4.39500000
6       -4.39500000       19.04500000        4.39500000
6       -4.39500000       21.97500000        1.46500000
14        0.00000000       17.58000000        5.86000000
14        0.00000000       20.51000000        8.79000000
14       -2.93000000       20.51000000        5.86000000
14       -2.93000000       17.58000000        8.79000000
6       -1.46500000       19.04500000        7.32500000
6       -1.46500000       21.97500000       10.25500001
6       -4.39500000       19.04500000       10.25500001
6       -4.39500000       21.97500000        7.32500000
14        0.00000000       17.58000000       11.72000001
14        0.00000000       20.51000000       14.65000001
14       -2.93000000       20.51000000       11.72000001
14       -2.93000000       17.58000000       14.65000001
6       -1.46500000       19.04500000       13.18500001
6       -1.46500000       21.97500000       16.11500001
6       -4.39500000       19.04500000       16.11500001
6       -4.39500000       21.97500000       13.18500001
14        0.00000000       17.58000000       17.58000001
14        0.00000000       20.51000000       20.51000001
14       -2.93000000       20.51000000       17.58000001
14       -2.93000000       17.58000000       20.51000001
6       -1.46500000       19.04500000       19.04500001
6       -1.46500000       21.97500000       21.97500001
6       -4.39500000       19.04500000       21.97500001
6       -4.39500000       21.97500000       19.04500001
14        0.00000000       17.58000000       23.44000001
14        0.00000000       20.51000000       26.37000001
14       -2.93000000       20.51000000       23.44000001
14       -2.93000000       17.58000000       26.37000001
6       -1.46500000       19.04500000       24.90500001
6       -1.46500000       21.97500000       27.83500002
6       -4.39500000       19.04500000       27.83500002
6       -4.39500000       21.97500000       24.90500001
14        0.00000000       17.58000000       29.30000002
14        0.00000000       20.51000000       32.23000002
14       -2.93000000       20.51000000       29.30000002
14       -2.93000000       17.58000000       32.23000002
6       -1.46500000       19.04500000       30.76500002
6       -1.46500000       21.97500000       33.69500002
6       -4.39500000       19.04500000       33.69500002
6       -4.39500000       21.97500000       30.76500002
14        0.00000000       17.58000000       35.16000002
14        0.00000000       20.51000000       38.09000002
14       -2.93000000       20.51000000       35.16000002
14       -2.93000000       17.58000000       38.09000002
6       -1.46500000       19.04500000       36.62500002
6       -1.46500000       21.97500000       39.55500002
6       -4.39500000       19.04500000       39.55500002
6       -4.39500000       21.97500000       36.62500002
14        0.00000000       17.58000000       41.02000002
14        0.00000000       20.51000000       43.95000002
14       -2.93000000       20.51000000       41.02000002
14       -2.93000000       17.58000000       43.95000002
6       -1.46500000       19.04500000       42.48500002
6       -1.46500000       21.97500000       45.41500002
6       -4.39500000       19.04500000       45.41500002
6       -4.39500000       21.97500000       42.48500002
14        0.00000000       17.58000000       46.88000003
14        0.00000000       20.51000000       49.81000003
14       -2.93000000       20.51000000       46.88000003
14       -2.93000000       17.58000000       49.81000003
6       -1.46500000       19.04500000       48.34500003
6       -1.46500000       21.97500000       51.27500003
6       -4.39500000       19.04500000       51.27500003
6       -4.39500000       21.97500000       48.34500003
14        0.00000000       17.58000000       52.74000003
14        0.00000000       20.51000000       55.67000003
14       -2.93000000       20.51000000       52.74000003
14       -2.93000000       17.58000000       55.67000003
6       -1.46500000       19.04500000       54.20500003
6       -1.46500000       21.97500000       57.13500003
6       -4.39500000       19.04500000       57.13500003
6       -4.39500000       21.97500000       54.20500003
14        0.00000000       23.44000000        0.00000000
14        0.00000000       26.37000000        2.93000000
14       -2.93000000       26.37000000        0.00000000
14       -2.93000000       23.44000000        2.93000000
6       -1.46500000       24.90500000        1.46500000
6       -1.46500000       27.83500000        4.39500000
6       -4.39500000       24.90500000        4.39500000
6       -4.39500000       27.83500000        1.46500000
14        0.00000000       23.44000000        5.86000000
14        0.00000000       26.37000000        8.79000000
14       -2.93000000       26.37000000        5.86000000
14       -2.93000000       23.44000000        8.79000000
6       -1.46500000       24.90500000        7.32500000
6       -1.46500000       27.83500000       10.25500001
6       -4.39500000       24.90500000       10.25500001
6       -4.39500000       27.83500000        7.32500000
14        0.00000000       23.44000000       11.72000001
14        0.00000000       26.37000000       14.65000001
14       -2.93000000       26.37000000       11.72000001
14       -2.93000000       23.44000000       14.65000001
6       -1.46500000       24.90500000       13.18500001
6       -1.46500000       27.83500000       16.11500001
6       -4.39500000       24.90500000       16.11500001
6       -4.39500000       27.83500000       13.18500001
14        0.00000000       23.44000000       17.58000001
14        0.00000000       26.37000000       20.51000001
14       -2.93000000       26.37000000       17.58000001
14       -2.93000000       23.44000000       20.51000001
6       -1.46500000       24.90500000       19.04500001
6       -1.46500000       27.83500000       21.97500001
6       -4.39500000       24.90500000       21.97500001
6       -4.39500000       27.83500000       19.04500001
14        0.00000000       23.44000000       23.44000001
14        0.00000000       26.37000000       26.37000001
14       -2.93000000       26.37000000       23.44000001
14       -2.93000000       23.44000000       26.37000001
6       -1.46500000       24.90500000       24.90500001
6       -1.46500000       27.83500000       27.83500002
6       -4.39500000       24.90500000       27.83500002
6       -4.39500000       27.83500000       24.90500001
14        0.00000000       23.44000000       29.30000002
14        0.00000000       26.37000000       32.23000002
14       -2.93000000       26.37000000       29.30000002
14       -2.93000000       23.44000000       32.23000002
6       -1.46500000       24.90500000       30.76500002
6       -1.46500000       27.83500000       33.69500002
6       -4.39500000       24.90500000       33.69500002
6       -4.39500000       27.83500000       30.76500002
14        0.00000000       23.44000000       35.16000002
14        0.00000000       26.37000000       38.09000002
14       -2.93000000       26.37000000       35.16000002
14       -2.93000000       23.44000000       38.09000002
6       -1.46500000       24.90500000       36.62500002
6       -1.46500000       27.83500000       39.55500002
6       -4.39500000       24.90500000       39.55500002
6       -4.39500000       27.83500000       36.62500002
14        0.00000000       23.44000000       41.02000002
14        0.00000000       26.37000000       43.95000002
14       -2.93000000       26.37000000       41.02000002
14       -2.93000000       23.44000000       43.95000002
6       -1.46500000       24.90500000       42.48500002
6       -1.46500000       27.83500000       45.41500002
6       -4.39500000       24.90500000       45.41500002
6       -4.39500000       27.83500000       42.48500002
14        0.00000000       23.44000000       46.88000003
14        0.00000000       26.37000000       49.81000003
14       -2.93000000       26.37000000       46.88000003
14       -2.93000000       23.44000000       49.81000003
6       -1.46500000       24.90500000       48.34500003
6       -1.46500000       27.83500000       51.27500003
6       -4.39500000       24.90500000       51.27500003
6       -4.39500000       27.83500000       48.34500003
14        0.00000000       23.44000000       52.74000003
14        0.00000000       26.37000000       55.67000003
14       -2.93000000       26.37000000       52.74000003
14       -2.93000000       23.44000000       55.67000003
6       -1.46500000       24.90500000       54.20500003
6       -1.46500000       27.83500000       57.13500003
6       -4.39500000       24.90500000       57.13500003
6       -4.39500000       27.83500000       54.20500003
14        0.00000000       29.30000000        0.00000000
14        0.00000000       32.23000000        2.93000000
14       -2.93000000       32.23000000        0.00000000
14       -2.93000000       29.30000000        2.93000000
6       -1.46500000       30.76500000        1.46500000
6       -1.46500000       33.69500000        4.39500000
6       -4.39500000       30.76500000        4.39500000
6       -4.39500000       33.69500000        1.46500000
14        0.00000000       29.30000000        5.86000000
14        0.00000000       32.23000000        8.79000000
14       -2.93000000       32.23000000        5.86000000
14       -2.93000000       29.30000000        8.79000000
6       -1.46500000       30.76500000        7.32500000
6       -1.46500000       33.69500000       10.25500001
6       -4.39500000       30.76500000       10.25500001
6       -4.39500000       33.69500000        7.32500000
14        0.00000000       29.30000000       11.72000001
14        0.00000000       32.23000000       14.65000001
14       -2.93000000       32.23000000       11.72000001
14       -2.93000000       29.30000000       14.65000001
6       -1.46500000       30.76500000       13.18500001
6       -1.46500000       33.69500000       16.11500001
6       -4.39500000       30.76500000       16.11500001
6       -4.39500000       33.69500000       13.18500001
14        0.00000000       29.30000000       17.58000001
14        0.00000000       32.23000000       20.51000001
14       -2.93000000       32.23000000       17.58000001
14       -2.93000000       29.30000000       20.51000001
6       -1.46500000       30.76500000       19.04500001
6       -1.46500000       33.69500000       21.97500001
6       -4.39500000       30.76500000       21.97500001
6       -4.39500000       33.69500000       19.04500001
14        0.00000000       29.30000000       23.44000001
14        0.00000000       32.23000000       26.37000001
14       -2.93000000       32.23000000       23.44000001
14       -2.93000000       29.30000000       26.37000001
6       -1.46500000       30.76500000       24.90500001
6       -1.46500000       33.69500000       27.83500002
6       -4.39500000       30.76500000       27.83500002
6       -4.39500000       33.69500000       24.90500001
14        0.00000000       29.30000000       29.30000002
14        0.00000000       32.23000000       32.23000002
14       -2.93000000       32.23000000       29.30000002
14       -2.93000000       29.30000000       32.23000002
6       -1.46500000       30.76500000       30.76500002
6       -1.46500000       33.69500000       33.69500002
6       -4.39500000       30.76500000       33.69500002
6       -4.39500000       33.69500000       30.76500002
14        0.00000000       29.30000000       35.16000002
14        0.00000000       32.23000000       38.09000002
14       -2.93000000       32.23000000       35.16000002
14       -2.93000000       29.30000000       38.09000002
6       -1.46500000       30.76500000       36.62500002
6       -1.46500000       33.69500000       39.55500002
6       -4.39500000       30.76500000       39.55500002
6       -4.39500000       33.69500000       36.62500002
14        0.00000000       29.30000000       41.02000002
14        0.00000000       32.23000000       43.95000002
14       -2.93000000       32.23000000       41.02000002
14       -2.93000000       29.30000000       43.95000002
6       -1.46500000       30.76500000       42.48500002
6       -1.46500000       33.69500000       45.41500002
6       -4.39500000       30.76500000       45.41500002
6       -4.39500000       33.69500000       42.48500002
14        0.00000000       29.30000000       46.88000003
14        0.00000000       32.23000000       49.81000003
14       -2.93000000       32.23000000       46.88000003
14       -2.93000000       29.30000000       49.81000003
6       -1.46500000       30.76500000       48.34500003
6       -1.46500000       33.69500000       51.27500003
6       -4.39500000       30.76500000       51.27500003
6       -4.39500000       33.69500000       48.34500003
14        0.00000000       29.30000000       52.74000003
14        0.00000000       32.23000000       55.67000003
14       -2.93000000       32.23000000       52.74000003
14       -2.93000000       29.30000000       55.67000003
6       -1.46500000       30.76500000       54.20500003
6       -1.46500000       33.69500000       57.13500003
6       -4.39500000       30.76500000       57.13500003
6       -4.39500000       33.69500000       54.20500003
14        0.00000000       35.16000000        0.00000000
14        0.00000000       38.09000000        2.93000000
14       -2.93000000       38.09000000        0.00000000
14       -2.93000000       35.16000000        2.93000000
6       -1.46500000       36.62500000        1.46500000
6       -1.46500000       39.55500000        4.39500000
6       -4.39500000       36.62500000        4.39500000
6       -4.39500000       39.55500000        1.46500000
14        0.00000000       35.16000000        5.86000000
14        0.00000000       38.09000000        8.79000000
14       -2.93000000       38.09000000        5.86000000
14       -2.93000000       35.16000000        8.79000000
6       -1.46500000       36.62500000        7.32500000
6       -1.46500000       39.55500000       10.25500001
6       -4.39500000       36.62500000       10.25500001
6       -4.39500000       39.55500000        7.32500000
14        0.00000000       35.16000000       11.72000001
14        0.00000000       38.09000000       14.65000001
14       -2.93000000       38.09000000       11.72000001
14       -2.93000000       35.16000000       14.65000001
6       -1.46500000       36.62500000       13.18500001
6       -1.46500000       39.55500000       16.11500001
6       -4.39500000       36.62500000       16.11500001
6       -4.39500000       39.55500000       13.18500001
14        0.00000000       35.16000000       17.58000001
14        0.00000000       38.09000000       20.51000001
14       -2.93000000       38.09000000       17.58000001
14       -2.93000000       35.16000000       20.51000001
6       -1.46500000       36.62500000       19.04500001
6       -1.46500000       39.55500000       21.97500001
6       -4.39500000       36.62500000       21.97500001
6       -4.39500000       39.55500000       19.04500001
14        0.00000000       35.16000000       23.44000001
14        0.00000000       38.09000000       26.37000001
14       -2.93000000       38.09000000       23.44000001
14       -2.93000000       35.16000000       26.37000001
6       -1.46500000       36.62500000       24.90500001
6       -1.46500000       39.55500000       27.83500002
6       -4.39500000       36.62500000       27.83500002
6       -4.39500000       39.55500000       24.90500001
14        0.00000000       35.16000000       29.30000002
14        0.00000000       38.09000000       32.23000002
14       -2.93000000       38.09000000       29.30000002